------------------------------------------------------------
          Invoking FHI-aims ...

          When using FHI-aims, please cite the following reference:

            Volker Blum, Ralf Gehrke, Felix Hanke, Paula Havu,
            Ville Havu, Xinguo Ren, Karsten Reuter, and Matthias Scheffler,
            'Ab Initio Molecular Simulations with Numeric Atom-Centered Orbitals',
            Computer Physics Communications 180, 2175-2196 (2009)

          In addition, many other developments in FHI-aims are likely important for
          your particular application. If so, please cite them. A partial list of references
          is written at the end of this file. Thank you for giving credit to the authors
          of these developments.

          For general information about FHI-aims please find us at

            https://fhi-aims.org

          Online tutorials can be found at

            https://fhi-aims-club.gitlab.io/tutorials/tutorials-overview/

          For any questions about FHI-aims, please visit our slack channel at

            https://fhi-aims.slack.com

          and our main development and support site at

            https://aims-git.rz-berlin.mpg.de .

          The latter site, in particular, has a wiki to collect information, as well
          as an issue tracker to log discussions, suggest improvements, and report issues
          or bugs. https://aims-git.rz-berlin.mpg.de is also the main development site
          of the project and all new and updated code versions can be obtained there.
          Please send an email to aims-coordinators@fhi-berlin.mpg.de and we will add
          you to these sites. They are for you and everyone is welcome there.

------------------------------------------------------------



  Date     :  20241006, Time     :  051609.455
  Time zero on CPU 1             :   0.432720000000000E+00  s.
  Internal wall clock time zero  :           497423769.455  s.

  FHI-aims created a unique identifier for this run for later identification
  aims_uuid : 569191DC-737C-4E77-AC2C-AB18DB4FA61B

  Build configuration of the current instance of FHI-aims
  -------------------------------------------------------
  FHI-aims version      : 240605
  Commit number         : b001b2e18
  CMake host system     : Linux-6.5.0-41-generic
  CMake version         : 3.22.1
  Fortran compiler      : /opt/intel/oneapi/mpi/2021.12/bin/mpiifort (IntelLLVM) version 2024.1.0
  Fortran compiler flags: -fc=ifx -O3 -ip -fp-model precise
  C compiler            : /opt/intel/oneapi/mpi/2021.12/bin/mpiicc (IntelLLVM) version 2024.1.0
  C compiler flags      : -cc=icx -O3 -ip -fp-model precise -std=gnu99
  C++ compiler          : /opt/intel/oneapi/mpi/2021.12/bin/mpiicpc (IntelLLVM) version 2024.1.0
  C++ compiler flags    : -cxx=icpx -O3 -ip -fp-model precise -std=c++11
  HIP compiler          :
  HIP compiler flags    :
  HIP GPU arch          :
  Using MPI
  Using ScaLAPACK
  Using LibXC
  Using i-PI
  Using RLSY
  Linking against: /opt/intel/oneapi/mkl/2024.1/lib/intel64/libmkl_intel_lp64.so
                   /opt/intel/oneapi/mkl/2024.1/lib/intel64/libmkl_sequential.so
                   /opt/intel/oneapi/mkl/2024.1/lib/intel64/libmkl_core.so
                   /opt/intel/oneapi/mkl/2024.1/lib/intel64/libmkl_blacs_intelmpi_lp64.so
                   /opt/intel/oneapi/mkl/2024.1/lib/intel64/libmkl_scalapack_lp64.so
                   /opt/intel/oneapi/mkl/2024.1/lib/intel64/libmkl_core.so

  Using       32 parallel tasks.
  Task        0 on host RSL-arvutus reporting.
  Task        1 on host RSL-arvutus reporting.
  Task        2 on host RSL-arvutus reporting.
  Task        3 on host RSL-arvutus reporting.
  Task        4 on host RSL-arvutus reporting.
  Task        5 on host RSL-arvutus reporting.
  Task        6 on host RSL-arvutus reporting.
  Task        7 on host RSL-arvutus reporting.
  Task        8 on host RSL-arvutus reporting.
  Task        9 on host RSL-arvutus reporting.
  Task       10 on host RSL-arvutus reporting.
  Task       11 on host RSL-arvutus reporting.
  Task       12 on host RSL-arvutus reporting.
  Task       13 on host RSL-arvutus reporting.
  Task       14 on host RSL-arvutus reporting.
  Task       15 on host RSL-arvutus reporting.
  Task       16 on host RSL-arvutus reporting.
  Task       17 on host RSL-arvutus reporting.
  Task       18 on host RSL-arvutus reporting.
  Task       19 on host RSL-arvutus reporting.
  Task       20 on host RSL-arvutus reporting.
  Task       21 on host RSL-arvutus reporting.
  Task       22 on host RSL-arvutus reporting.
  Task       23 on host RSL-arvutus reporting.
  Task       24 on host RSL-arvutus reporting.
  Task       25 on host RSL-arvutus reporting.
  Task       26 on host RSL-arvutus reporting.
  Task       27 on host RSL-arvutus reporting.
  Task       28 on host RSL-arvutus reporting.
  Task       29 on host RSL-arvutus reporting.
  Task       30 on host RSL-arvutus reporting.
  Task       31 on host RSL-arvutus reporting.

  Memory overcommitment is allowed on your operating system.

  Obtaining array dimensions for all initial allocations:
  
  -----------------------------------------------------------------------
  Parsing control.in (first pass over file, find array dimensions only).
  The contents of control.in will be repeated verbatim below
  unless switched off by setting 'verbatim_writeout .false.' .
  in the first line of control.in .
  -----------------------------------------------------------------------
  
    xc              pbe
    relativistic    atomic_zora scalar
    k_grid          4 8 2
  
    charge	  1.0
    output          Mulliken
  
  
  ################################################################################
  #
  #  FHI-aims code project
  #  VB, Fritz-Haber Institut, 2009
  #
  #  Suggested "light" defaults for Ti atom (to be pasted into control.in file)
  #  Be sure to double-check any results obtained with these settings for post-processing,
  #  e.g., with the "tight" defaults and larger basis sets.
  #
  ################################################################################
    species        Ti
  #     global species definitions
      nucleus             22
      mass                47.867
  #
      l_hartree           4
  #
      cut_pot             3.5          1.5  1.0
      basis_dep_cutoff    1e-4
  #
      radial_base         48 5.0
      radial_multiplier   1
      angular_grids       specified
        division   0.5171   50
        division   0.9824  110
        division   1.2917  194
        division   1.4940  302
  #      division   1.6934  434
  #      division   1.8425  590
  #      division   2.1901  770
  #      division   2.2896  974
  #      division   2.8244 1202
  #      outer_grid  974
        outer_grid  302
  ################################################################################
  #
  #  Definition of "minimal" basis
  #
  ################################################################################
  #     valence basis states
      valence      4  s   2.
      valence      3  p   6.
      valence      3  d   2.
  #     ion occupancy
      ion_occ      4  s   1.
      ion_occ      3  p   6.
      ion_occ      3  d   1.
  ################################################################################
  #
  #  Suggested additional basis functions. For production calculations,
  #  uncomment them one after another (the most important basis functions are
  #  listed first).
  #
  #  Constructed for dimers: 1.6 A, 1.85 A, 2.5 A, 3.25 A, 4.25 A
  #
  ################################################################################
  #  "First tier" - improvements: -396.25 meV to -19.41 meV
       hydro 4 f 8
       hydro 3 d 2.7
       ionic 4 p auto
  #     hydro 5 g 11.6
       ionic 4 s auto
  #  "Second tier" - improvements: -16.30 meV to -2.03 meV
  #     hydro 3 d 4.4
  #     hydro 6 h 16
  #     hydro 4 f 9.4
  #     hydro 4 p 4.5
  #     hydro 1 s 0.5
  #  "Third tier" - improvements: -6.28 meV to -0.37 meV
  #     hydro 4 d 6.4
  #     hydro 4 f 10
  #     hydro 5 g 12
  #     hydro 2 p 1.7
  #     hydro 6 h 16.4
  #     hydro 4 s 3.8
  #  Further basis functions: -0.45 meV and smaller improvements
  #     hydro 3 d 8.8
  #     hydro 5 p 18
  #     hydro 4 f 22.4
  #     hydro 5 f 7.2  # -0.16 meV
  #     hydro 3 d 2.1  # -0.11 meV
  #     hydro 5 g 7.4  # -0.09 meV
  
  
  ################################################################################
  #
  #  FHI-aims code project
  #  VB, Fritz-Haber Institut, 2009
  #
  #  Suggested "light" defaults for O atom (to be pasted into control.in file)
  #  Be sure to double-check any results obtained with these settings for post-processing,
  #  e.g., with the "tight" defaults and larger basis sets.
  #
  ################################################################################
    species        O
  #     global species definitions
      nucleus             8
      mass                15.9994
  #
      l_hartree           4
  #
      cut_pot             3.5  1.5  1.0
      basis_dep_cutoff    1e-4
  #
      radial_base         36 5.0
      radial_multiplier   1
       angular_grids specified
        division   0.2659   50
        division   0.4451  110
        division   0.6052  194
        division   0.7543  302
  #      division   0.8014  434
  #      division   0.8507  590
  #      division   0.8762  770
  #      division   0.9023  974
  #      division   1.2339 1202
  #      outer_grid 974
        outer_grid 302
  ################################################################################
  #
  #  Definition of "minimal" basis
  #
  ################################################################################
  #     valence basis states
      valence      2  s   2.
      valence      2  p   4.
  #     ion occupancy
      ion_occ      2  s   1.
      ion_occ      2  p   3.
  ################################################################################
  #
  #  Suggested additional basis functions. For production calculations,
  #  uncomment them one after another (the most important basis functions are
  #  listed first).
  #
  #  Constructed for dimers: 1.0 A, 1.208 A, 1.5 A, 2.0 A, 3.0 A
  #
  ################################################################################
  #  "First tier" - improvements: -699.05 meV to -159.38 meV
       hydro 2 p 1.8
       hydro 3 d 7.6
       hydro 3 s 6.4
  #  "Second tier" - improvements: -49.91 meV to -5.39 meV
  #     hydro 4 f 11.6
  #     hydro 3 p 6.2
  #     hydro 3 d 5.6
  #     hydro 5 g 17.6
  #     hydro 1 s 0.75
  #  "Third tier" - improvements: -2.83 meV to -0.50 meV
  #     ionic 2 p auto
  #     hydro 4 f 10.8
  #     hydro 4 d 4.7
  #     hydro 2 s 6.8
  #  "Fourth tier" - improvements: -0.40 meV to -0.12 meV
  #     hydro 3 p 5
  #     hydro 3 s 3.3
  #     hydro 5 g 15.6
  #     hydro 4 f 17.6
  #     hydro 4 d 14
  # Further basis functions - -0.08 meV and below
  #     hydro 3 s 2.1
  #     hydro 4 d 11.6
  #     hydro 3 p 16
  #     hydro 2 s 17.2
  ################################################################################
  #
  #  FHI-aims code project
  #  VB, Fritz-Haber Institut, 2009
  #
  #  Suggested "light" defaults for F atom (to be pasted into control.in file)
  #  Be sure to double-check any results obtained with these settings for post-processing,
  #  e.g., with the "tight" defaults and larger basis sets.
  #
  ################################################################################
    species        F
  #     global species definitions
      nucleus             9
      mass                18.9984032
  #
      l_hartree           4
  #
      cut_pot             3.5  1.5  1.0
      basis_dep_cutoff    1e-4
  #
      radial_base         37 5.0
      radial_multiplier   1
      angular_grids specified
        division   0.4014  110
        division   0.5291  194
        division   0.6019  302
  #      division   0.6814  434
  #      division   0.7989  590
  #      division   0.8965  770
  #      division   1.3427  974
  #      outer_grid   974
        outer_grid   302
  ################################################################################
  #
  #  Definition of "minimal" basis
  #
  ################################################################################
  #     valence basis states
      valence      2  s   2.
      valence      2  p   5.
  #     ion occupancy
      ion_occ      2  s   1.
      ion_occ      2  p   4.
  ################################################################################
  #
  #  Suggested additional basis functions. For production calculations,
  #  uncomment them one after another (the most important basis functions are
  #  listed first).
  #
  #  Constructed for dimers: 1.2 A, 1.418 A, 1.75 A, 2.25 A, 3.25 A
  #
  ################################################################################
  #  "First tier" - improvements: -149.44 meV to -45.88 meV
       hydro 2 p 1.7
       hydro 3 d 7.4
       hydro 3 s 6.8
  #  "Second tier" - improvements: -12.96 meV to -1.56 meV
  #     hydro 4 f 11.2
  #     ionic 2 p auto
  #     hydro 1 s 0.75
  #     hydro 4 d 8.8
  #     hydro 5 g 16.8
  #  "Third tier" - improvements: -0.58 meV to -0.05 meV
  #     hydro 3 p 6.2
  #     hydro 3 s 3.2
  #     hydro 4 f 9.6
  #     hydro 3 s 19.6
  #     hydro 4 d 8.6
  #     hydro 5 g 14.4
  # Further basis functions: -0.05 meV and below
  #     hydro 3 p 4.2
  
  -----------------------------------------------------------------------
  Completed first pass over input file control.in .
  -----------------------------------------------------------------------
  
  
  -----------------------------------------------------------------------
  Parsing geometry.in (first pass over file, find array dimensions only).
  The contents of geometry.in will be repeated verbatim below
  unless switched off by setting 'verbatim_writeout .false.' .
  in the first line of geometry.in .
  -----------------------------------------------------------------------
  
  lattice_vector 13.132253 0.000000 0.000000
  lattice_vector 0.000000 5.945765 0.000000
  lattice_vector 0.000000 0.000000 41.856174
  
  atom 13.132253 0.000000 15.000000 Ti
  atom 3.283063 1.486441 15.000000 Ti
  atom 1.276729 1.486441 15.000029 F
  atom 3.283086 0.000000 16.276767 O
  atom 6.566086 0.000000 17.006468 O
  atom 2.006317 1.486441 18.283206 O
  atom 3.283046 0.000000 18.283235 Ti
  atom 6.566109 1.486441 18.283235 Ti
  atom 4.559775 1.486441 18.283265 O
  atom 0.000005 0.000000 19.560002 O
  atom 3.283006 0.000000 20.289704 O
  atom 5.289362 1.486441 21.566441 O
  atom 6.566091 0.000000 21.566471 Ti
  atom 3.283028 1.486441 21.566471 Ti
  atom 1.276694 1.486441 21.566500 O
  atom 3.283051 0.000000 22.843237 O
  atom 6.566051 0.000000 23.572939 O
  atom 2.006281 1.486441 24.849676 O
  atom 3.283010 0.000000 24.849706 Ti
  atom 6.566074 1.486441 24.849706 Ti
  atom 4.559740 1.486441 24.849735 O
  atom 6.566096 0.000000 26.126473 O
  atom 3.282970 0.000000 26.856174 O
  atom 13.132253 2.972883 15.000000 Ti
  atom 3.283063 4.459324 15.000000 Ti
  atom 1.276729 4.459324 15.000029 O
  atom 3.283086 2.972883 16.276767 O
  atom 6.566086 2.972883 17.006468 O
  atom 2.006317 4.459324 18.283206 O
  atom 3.283046 2.972883 18.283235 Ti
  atom 6.566109 4.459324 18.283235 Ti
  atom 4.559775 4.459324 18.283265 O
  atom 0.000005 2.972883 19.560002 O
  atom 3.283006 2.972883 20.289704 O
  atom 5.289362 4.459324 21.566441 O
  atom 6.566091 2.972883 21.566471 Ti
  atom 3.283028 4.459324 21.566471 Ti
  atom 1.276694 4.459324 21.566500 O
  atom 3.283051 2.972883 22.843237 O
  atom 6.566051 2.972883 23.572939 O
  atom 2.006281 4.459324 24.849676 O
  atom 3.283010 2.972883 24.849706 Ti
  atom 6.566074 4.459324 24.849706 Ti
  atom 4.559740 4.459324 24.849735 O
  atom 6.566096 2.972883 26.126473 O
  atom 3.282970 2.972883 26.856174 O
  atom 6.566126 0.000000 15.000000 Ti
  atom 9.849190 1.486441 15.000000 Ti
  atom 7.842856 1.486441 15.000029 O
  atom 9.849212 0.000000 16.276767 O
  atom 13.132213 0.000000 17.006468 O
  atom 8.572443 1.486441 18.283206 O
  atom 9.849172 0.000000 18.283235 Ti
  atom 13.132235 1.486441 18.283235 Ti
  atom 11.125901 1.486441 18.283265 O
  atom 6.566131 0.000000 19.560002 O
  atom 9.849132 0.000000 20.289704 O
  atom 11.855489 1.486441 21.566441 O
  atom 13.132218 0.000000 21.566471 Ti
  atom 9.849155 1.486441 21.566471 Ti
  atom 7.842820 1.486441 21.566500 O
  atom 9.849177 0.000000 22.843237 O
  atom 13.132178 0.000000 23.572939 O
  atom 8.572408 1.486441 24.849676 O
  atom 9.849137 0.000000 24.849706 Ti
  atom 13.132200 1.486441 24.849706 Ti
  atom 11.125866 1.486441 24.849735 O
  atom 13.132223 0.000000 26.126473 O
  atom 9.849097 0.000000 26.856174 O
  atom 6.566126 2.972883 15.000000 Ti
  atom 9.849190 4.459324 15.000000 Ti
  atom 7.842856 4.459324 15.000029 O
  atom 9.849212 2.972883 16.276767 O
  atom 13.132213 2.972883 17.006468 O
  atom 8.572443 4.459324 18.283206 O
  atom 9.849172 2.972883 18.283235 Ti
  atom 13.132235 4.459324 18.283235 Ti
  atom 11.125901 4.459324 18.283265 O
  atom 6.566131 2.972883 19.560002 O
  atom 9.849132 2.972883 20.289704 O
  atom 11.855489 4.459324 21.566441 O
  atom 13.132218 2.972883 21.566471 Ti
  atom 9.849155 4.459324 21.566471 Ti
  atom 7.842820 4.459324 21.566500 O
  atom 9.849177 2.972883 22.843237 O
  atom 13.132178 2.972883 23.572939 O
  atom 8.572408 4.459324 24.849676 O
  atom 9.849137 2.972883 24.849706 Ti
  atom 13.132200 4.459324 24.849706 Ti
  atom 11.125866 4.459324 24.849735 O
  atom 13.132223 2.972883 26.126473 O
  atom 9.849097 2.972883 26.856174 O
  
  -----------------------------------------------------------------------
  Completed first pass over input file geometry.in .
  -----------------------------------------------------------------------
  

  Basic array size parameters:
  | Number of species                 :        3
  | Number of atoms                   :       92
  | Number of lattice vectors         :        3
  | Max. basis fn. angular momentum   :        3
  | Max. atomic/ionic basis occupied n:        4
  | Max. number of basis fn. types    :        3
  | Max. radial fns per species/type  :        7
  | Max. logarithmic grid size        :     1383
  | Max. radial integration grid size :       48
  | Max. angular integration grid size:      302
  | Max. angular grid division number :        8
  | Radial grid for Hartree potential :     1383
  | Number of spin channels           :        1

------------------------------------------------------------
          Reading file control.in.
------------------------------------------------------------
  XC: Using PBE gradient-corrected functionals.
  Scalar relativistic treatment of kinetic energy: on-site free-atom approximation to ZORA.
  Found k-point grid:         4         8         2
  Charged system requested: Charge =   0.100000E+01.
  Mulliken charge analysis will be performed and summarised to the main output.
  Full Mulliken charge analysis will be written to file 'Mulliken.out'.
 
  Reading configuration options for species Ti                  .
  | Found nuclear charge :  22.0000
  | Found atomic mass :    47.8670000000000      amu
  | Found l_max for Hartree potential  :   4
  | Found cutoff potl. onset [A], width [A], scale factor :    3.50000    1.50000    1.00000
  | Threshold for basis-dependent cutoff potential is   0.100000E-03
  | Found data for basic radial integration grid :    48 points, outermost radius =    5.000 A
  | Found multiplier for basic radial grid :   1
  | Found angular grid specification: user-specified.
  | Specified grid contains     5 separate shells.
  | Check grid settings after all constraints further below.
  | Found free-atom valence shell :  4 s   2.000
  | Found free-atom valence shell :  3 p   6.000
  | Found free-atom valence shell :  3 d   2.000
  | Found free-ion valence shell :  4 s   1.000
  | Found free-ion valence shell :  3 p   6.000
  | Found free-ion valence shell :  3 d   1.000
  | Found hydrogenic basis function :  4 f   8.000
  | Found hydrogenic basis function :  3 d   2.700
  | Found ionic basis function :  4 p , default cutoff radius.
  | Found ionic basis function :  4 s , default cutoff radius.
 | Encountered keyword species, ending the description of species Ti                  .
  Species Ti                  : Missing cutoff potential type.
  Defaulting to exp(1/x)/(1-x)^2 type cutoff potential.
  Species Ti: No 'logarithmic' tag. Using default grid for free atom:
  | Default logarithmic grid data [bohr] : 0.1000E-03 0.1000E+03 0.1012E+01
  | Will include ionic basis functions of  2.0-fold positive Ti                   ion.
  Species Ti: On-site basis accuracy parameter (for Gram-Schmidt orthonormalisation) not specified.
  Using default value basis_acc =  0.1000000E-03.
  Species Ti                  : Using default innermost maximum threshold i_radial=  2 for radial functions.
  Species Ti                  : Default cutoff onset for free atom density etc. : 0.35000000E+01 AA.
  Species Ti                  : Basic radial grid will be enhanced according to radial_multiplier =   1, to contain    48 grid points.
 
  Reading configuration options for species O                   .
  | Found nuclear charge :   8.0000
  | Found atomic mass :    15.9994000000000      amu
  | Found l_max for Hartree potential  :   4
  | Found cutoff potl. onset [A], width [A], scale factor :    3.50000    1.50000    1.00000
  | Threshold for basis-dependent cutoff potential is   0.100000E-03
  | Found data for basic radial integration grid :    36 points, outermost radius =    5.000 A
  | Found multiplier for basic radial grid :   1
  | Found angular grid specification: user-specified.
  | Specified grid contains     5 separate shells.
  | Check grid settings after all constraints further below.
  | Found free-atom valence shell :  2 s   2.000
  | Found free-atom valence shell :  2 p   4.000
  | Found free-ion valence shell :  2 s   1.000
  | Found free-ion valence shell :  2 p   3.000
  | Found hydrogenic basis function :  2 p   1.800
  | Found hydrogenic basis function :  3 d   7.600
  | Found hydrogenic basis function :  3 s   6.400
 | Encountered keyword species, ending the description of species O                   .
  Species O                   : Missing cutoff potential type.
  Defaulting to exp(1/x)/(1-x)^2 type cutoff potential.
  Species O : No 'logarithmic' tag. Using default grid for free atom:
  | Default logarithmic grid data [bohr] : 0.1000E-03 0.1000E+03 0.1012E+01
  Species O : On-site basis accuracy parameter (for Gram-Schmidt orthonormalisation) not specified.
  Using default value basis_acc =  0.1000000E-03.
  Species O                   : Using default innermost maximum threshold i_radial=  2 for radial functions.
  Species O                   : Default cutoff onset for free atom density etc. : 0.35000000E+01 AA.
  Species O                   : Basic radial grid will be enhanced according to radial_multiplier =   1, to contain    36 grid points.
 
  Reading configuration options for species F                   .
  | Found nuclear charge :   9.0000
  | Found atomic mass :    18.9984032000000      amu
  | Found l_max for Hartree potential  :   4
  | Found cutoff potl. onset [A], width [A], scale factor :    3.50000    1.50000    1.00000
  | Threshold for basis-dependent cutoff potential is   0.100000E-03
  | Found data for basic radial integration grid :    37 points, outermost radius =    5.000 A
  | Found multiplier for basic radial grid :   1
  | Found angular grid specification: user-specified.
  | Specified grid contains     4 separate shells.
  | Check grid settings after all constraints further below.
  | Found free-atom valence shell :  2 s   2.000
  | Found free-atom valence shell :  2 p   5.000
  | Found free-ion valence shell :  2 s   1.000
  | Found free-ion valence shell :  2 p   4.000
  | Found hydrogenic basis function :  2 p   1.700
  | Found hydrogenic basis function :  3 d   7.400
  | Found hydrogenic basis function :  3 s   6.800
  Species F                   : Missing cutoff potential type.
  Defaulting to exp(1/x)/(1-x)^2 type cutoff potential.
  Species F : No 'logarithmic' tag. Using default grid for free atom:
  | Default logarithmic grid data [bohr] : 0.1000E-03 0.1000E+03 0.1012E+01
  Species F : On-site basis accuracy parameter (for Gram-Schmidt orthonormalisation) not specified.
  Using default value basis_acc =  0.1000000E-03.
  Species F                   : Using default innermost maximum threshold i_radial=  2 for radial functions.
  Species F                   : Default cutoff onset for free atom density etc. : 0.35000000E+01 AA.
  Species F                   : Basic radial grid will be enhanced according to radial_multiplier =   1, to contain    37 grid points.
 
  Finished reading input file 'control.in'.
 
------------------------------------------------------------


------------------------------------------------------------
          Reading geometry description geometry.in.
------------------------------------------------------------
  | The smallest distance between any two atoms is         1.95947539 AA.
  | The first atom of this pair is atom number                     88 .
  | The second atom of this pair is atom number                    90 .
  | Wigner-Seitz cell of the first atom image           0     0     0 .
  | (The Wigner-Seitz cell of the second atom is 0 0 0  by definition.)

  Symmetry information by spglib:
  | Precision set to  0.1E-04
  | Number of Operations  : 2
  | Space group           : 6
  | International         : Pm        X
  | Schoenflies           : Cs^1
  Input structure read successfully.
  The structure contains       92 atoms,  and a total of       1184.000 electrons.

  Input geometry:
  | Unit cell:
  |       13.13225300        0.00000000        0.00000000
  |        0.00000000        5.94576500        0.00000000
  |        0.00000000        0.00000000       41.85617400
  | Atomic structure:
  |       Atom                x [A]            y [A]            z [A]
  |    1: Species Ti           13.13225300        0.00000000       15.00000000
  |    2: Species Ti            3.28306300        1.48644100       15.00000000
  |    3: Species F             1.27672900        1.48644100       15.00002900
  |    4: Species O             3.28308600        0.00000000       16.27676700
  |    5: Species O             6.56608600        0.00000000       17.00646800
  |    6: Species O             2.00631700        1.48644100       18.28320600
  |    7: Species Ti            3.28304600        0.00000000       18.28323500
  |    8: Species Ti            6.56610900        1.48644100       18.28323500
  |    9: Species O             4.55977500        1.48644100       18.28326500
  |   10: Species O             0.00000500        0.00000000       19.56000200
  |   11: Species O             3.28300600        0.00000000       20.28970400
  |   12: Species O             5.28936200        1.48644100       21.56644100
  |   13: Species Ti            6.56609100        0.00000000       21.56647100
  |   14: Species Ti            3.28302800        1.48644100       21.56647100
  |   15: Species O             1.27669400        1.48644100       21.56650000
  |   16: Species O             3.28305100        0.00000000       22.84323700
  |   17: Species O             6.56605100        0.00000000       23.57293900
  |   18: Species O             2.00628100        1.48644100       24.84967600
  |   19: Species Ti            3.28301000        0.00000000       24.84970600
  |   20: Species Ti            6.56607400        1.48644100       24.84970600
  |   21: Species O             4.55974000        1.48644100       24.84973500
  |   22: Species O             6.56609600        0.00000000       26.12647300
  |   23: Species O             3.28297000        0.00000000       26.85617400
  |   24: Species Ti           13.13225300        2.97288300       15.00000000
  |   25: Species Ti            3.28306300        4.45932400       15.00000000
  |   26: Species O             1.27672900        4.45932400       15.00002900
  |   27: Species O             3.28308600        2.97288300       16.27676700
  |   28: Species O             6.56608600        2.97288300       17.00646800
  |   29: Species O             2.00631700        4.45932400       18.28320600
  |   30: Species Ti            3.28304600        2.97288300       18.28323500
  |   31: Species Ti            6.56610900        4.45932400       18.28323500
  |   32: Species O             4.55977500        4.45932400       18.28326500
  |   33: Species O             0.00000500        2.97288300       19.56000200
  |   34: Species O             3.28300600        2.97288300       20.28970400
  |   35: Species O             5.28936200        4.45932400       21.56644100
  |   36: Species Ti            6.56609100        2.97288300       21.56647100
  |   37: Species Ti            3.28302800        4.45932400       21.56647100
  |   38: Species O             1.27669400        4.45932400       21.56650000
  |   39: Species O             3.28305100        2.97288300       22.84323700
  |   40: Species O             6.56605100        2.97288300       23.57293900
  |   41: Species O             2.00628100        4.45932400       24.84967600
  |   42: Species Ti            3.28301000        2.97288300       24.84970600
  |   43: Species Ti            6.56607400        4.45932400       24.84970600
  |   44: Species O             4.55974000        4.45932400       24.84973500
  |   45: Species O             6.56609600        2.97288300       26.12647300
  |   46: Species O             3.28297000        2.97288300       26.85617400
  |   47: Species Ti            6.56612600        0.00000000       15.00000000
  |   48: Species Ti            9.84919000        1.48644100       15.00000000
  |   49: Species O             7.84285600        1.48644100       15.00002900
  |   50: Species O             9.84921200        0.00000000       16.27676700
  |   51: Species O            13.13221300        0.00000000       17.00646800
  |   52: Species O             8.57244300        1.48644100       18.28320600
  |   53: Species Ti            9.84917200        0.00000000       18.28323500
  |   54: Species Ti           13.13223500        1.48644100       18.28323500
  |   55: Species O            11.12590100        1.48644100       18.28326500
  |   56: Species O             6.56613100        0.00000000       19.56000200
  |   57: Species O             9.84913200        0.00000000       20.28970400
  |   58: Species O            11.85548900        1.48644100       21.56644100
  |   59: Species Ti           13.13221800        0.00000000       21.56647100
  |   60: Species Ti            9.84915500        1.48644100       21.56647100
  |   61: Species O             7.84282000        1.48644100       21.56650000
  |   62: Species O             9.84917700        0.00000000       22.84323700
  |   63: Species O            13.13217800        0.00000000       23.57293900
  |   64: Species O             8.57240800        1.48644100       24.84967600
  |   65: Species Ti            9.84913700        0.00000000       24.84970600
  |   66: Species Ti           13.13220000        1.48644100       24.84970600
  |   67: Species O            11.12586600        1.48644100       24.84973500
  |   68: Species O            13.13222300        0.00000000       26.12647300
  |   69: Species O             9.84909700        0.00000000       26.85617400
  |   70: Species Ti            6.56612600        2.97288300       15.00000000
  |   71: Species Ti            9.84919000        4.45932400       15.00000000
  |   72: Species O             7.84285600        4.45932400       15.00002900
  |   73: Species O             9.84921200        2.97288300       16.27676700
  |   74: Species O            13.13221300        2.97288300       17.00646800
  |   75: Species O             8.57244300        4.45932400       18.28320600
  |   76: Species Ti            9.84917200        2.97288300       18.28323500
  |   77: Species Ti           13.13223500        4.45932400       18.28323500
  |   78: Species O            11.12590100        4.45932400       18.28326500
  |   79: Species O             6.56613100        2.97288300       19.56000200
  |   80: Species O             9.84913200        2.97288300       20.28970400
  |   81: Species O            11.85548900        4.45932400       21.56644100
  |   82: Species Ti           13.13221800        2.97288300       21.56647100
  |   83: Species Ti            9.84915500        4.45932400       21.56647100
  |   84: Species O             7.84282000        4.45932400       21.56650000
  |   85: Species O             9.84917700        2.97288300       22.84323700
  |   86: Species O            13.13217800        2.97288300       23.57293900
  |   87: Species O             8.57240800        4.45932400       24.84967600
  |   88: Species Ti            9.84913700        2.97288300       24.84970600
  |   89: Species Ti           13.13220000        4.45932400       24.84970600
  |   90: Species O            11.12586600        4.45932400       24.84973500
  |   91: Species O            13.13222300        2.97288300       26.12647300
  |   92: Species O             9.84909700        2.97288300       26.85617400

  Lattice parameters for 3D lattice (in Angstroms) :    13.132253    5.945765   41.856174
  Angle(s) between unit vectors (in degrees)       :    90.000000   90.000000   90.000000


  Quantities derived from the lattice vectors (in Angstrom^-1):
  | Reciprocal lattice vector 1:  0.478454  0.000000  0.000000
  | Reciprocal lattice vector 2:  0.000000  1.056750  0.000000
  | Reciprocal lattice vector 3:  0.000000  0.000000  0.150114
  | Unit cell volume                               :   0.326818E+04  Angstrom^3

  Fractional coordinates:
                         L1                L2                L3
       atom_frac         1.00000000        0.00000000        0.35837007  Ti
       atom_frac         0.24999998        0.24999996        0.35837007  Ti
       atom_frac         0.09722087        0.24999996        0.35837076  F
       atom_frac         0.25000173        0.00000000        0.38887374  O
       atom_frac         0.49999692        0.00000000        0.40630728  O
       atom_frac         0.15277782        0.24999996        0.43681025  O
       atom_frac         0.24999869        0.00000000        0.43681095  Ti
       atom_frac         0.49999867        0.24999996        0.43681095  Ti
       atom_frac         0.34721955        0.24999996        0.43681166  O
       atom_frac         0.00000038        0.00000000        0.46731462  O
       atom_frac         0.24999564        0.00000000        0.48474818  O
       atom_frac         0.40277643        0.24999996        0.51525113  O
       atom_frac         0.49999730        0.00000000        0.51525185  Ti
       atom_frac         0.24999732        0.24999996        0.51525185  Ti
       atom_frac         0.09721820        0.24999996        0.51525254  O
       atom_frac         0.24999907        0.00000000        0.54575550  O
       atom_frac         0.49999425        0.00000000        0.56318905  O
       atom_frac         0.15277508        0.24999996        0.59369201  O
       atom_frac         0.24999595        0.00000000        0.59369272  Ti
       atom_frac         0.49999600        0.24999996        0.59369272  Ti
       atom_frac         0.34721689        0.24999996        0.59369342  O
       atom_frac         0.49999768        0.00000000        0.62419640  O
       atom_frac         0.24999290        0.00000000        0.64162993  O
       atom_frac         1.00000000        0.50000008        0.35837007  Ti
       atom_frac         0.24999998        0.75000004        0.35837007  Ti
       atom_frac         0.09722087        0.75000004        0.35837076  O
       atom_frac         0.25000173        0.50000008        0.38887374  O
       atom_frac         0.49999692        0.50000008        0.40630728  O
       atom_frac         0.15277782        0.75000004        0.43681025  O
       atom_frac         0.24999869        0.50000008        0.43681095  Ti
       atom_frac         0.49999867        0.75000004        0.43681095  Ti
       atom_frac         0.34721955        0.75000004        0.43681166  O
       atom_frac         0.00000038        0.50000008        0.46731462  O
       atom_frac         0.24999564        0.50000008        0.48474818  O
       atom_frac         0.40277643        0.75000004        0.51525113  O
       atom_frac         0.49999730        0.50000008        0.51525185  Ti
       atom_frac         0.24999732        0.75000004        0.51525185  Ti
       atom_frac         0.09721820        0.75000004        0.51525254  O
       atom_frac         0.24999907        0.50000008        0.54575550  O
       atom_frac         0.49999425        0.50000008        0.56318905  O
       atom_frac         0.15277508        0.75000004        0.59369201  O
       atom_frac         0.24999595        0.50000008        0.59369272  Ti
       atom_frac         0.49999600        0.75000004        0.59369272  Ti
       atom_frac         0.34721689        0.75000004        0.59369342  O
       atom_frac         0.49999768        0.50000008        0.62419640  O
       atom_frac         0.24999290        0.50000008        0.64162993  O
       atom_frac         0.49999996        0.00000000        0.35837007  Ti
       atom_frac         0.75000002        0.24999996        0.35837007  Ti
       atom_frac         0.59722090        0.24999996        0.35837076  O
       atom_frac         0.75000169        0.00000000        0.38887374  O
       atom_frac         0.99999695        0.00000000        0.40630728  O
       atom_frac         0.65277778        0.24999996        0.43681025  O
       atom_frac         0.74999865        0.00000000        0.43681095  Ti
       atom_frac         0.99999863        0.24999996        0.43681095  Ti
       atom_frac         0.84721951        0.24999996        0.43681166  O
       atom_frac         0.50000034        0.00000000        0.46731462  O
       atom_frac         0.74999560        0.00000000        0.48474818  O
       atom_frac         0.90277647        0.24999996        0.51525113  O
       atom_frac         0.99999733        0.00000000        0.51525185  Ti
       atom_frac         0.74999735        0.24999996        0.51525185  Ti
       atom_frac         0.59721816        0.24999996        0.51525254  O
       atom_frac         0.74999903        0.00000000        0.54575550  O
       atom_frac         0.99999429        0.00000000        0.56318905  O
       atom_frac         0.65277512        0.24999996        0.59369201  O
       atom_frac         0.74999598        0.00000000        0.59369272  Ti
       atom_frac         0.99999596        0.24999996        0.59369272  Ti
       atom_frac         0.84721685        0.24999996        0.59369342  O
       atom_frac         0.99999772        0.00000000        0.62419640  O
       atom_frac         0.74999294        0.00000000        0.64162993  O
       atom_frac         0.49999996        0.50000008        0.35837007  Ti
       atom_frac         0.75000002        0.75000004        0.35837007  Ti
       atom_frac         0.59722090        0.75000004        0.35837076  O
       atom_frac         0.75000169        0.50000008        0.38887374  O
       atom_frac         0.99999695        0.50000008        0.40630728  O
       atom_frac         0.65277778        0.75000004        0.43681025  O
       atom_frac         0.74999865        0.50000008        0.43681095  Ti
       atom_frac         0.99999863        0.75000004        0.43681095  Ti
       atom_frac         0.84721951        0.75000004        0.43681166  O
       atom_frac         0.50000034        0.50000008        0.46731462  O
       atom_frac         0.74999560        0.50000008        0.48474818  O
       atom_frac         0.90277647        0.75000004        0.51525113  O
       atom_frac         0.99999733        0.50000008        0.51525185  Ti
       atom_frac         0.74999735        0.75000004        0.51525185  Ti
       atom_frac         0.59721816        0.75000004        0.51525254  O
       atom_frac         0.74999903        0.50000008        0.54575550  O
       atom_frac         0.99999429        0.50000008        0.56318905  O
       atom_frac         0.65277512        0.75000004        0.59369201  O
       atom_frac         0.74999598        0.50000008        0.59369272  Ti
       atom_frac         0.99999596        0.75000004        0.59369272  Ti
       atom_frac         0.84721685        0.75000004        0.59369342  O
       atom_frac         0.99999772        0.50000008        0.62419640  O
       atom_frac         0.74999294        0.50000008        0.64162993  O

  Slab Identifier: This is Z-oriented slab and maximum thickness of the vacuum is: 30.000 Angstrom.
 
  Finished reading input file 'geometry.in'.
 

 
  Consistency checks for stacksize environment parameter are next.
 
  | Maximum stacksize for task 0: unlimited
  | Maximum stacksize for task 1: unlimited
  | Maximum stacksize for task 2: unlimited
  | Maximum stacksize for task 3: unlimited
  | Maximum stacksize for task 4: unlimited
  | Maximum stacksize for task 5: unlimited
  | Maximum stacksize for task 6: unlimited
  | Maximum stacksize for task 7: unlimited
  | Maximum stacksize for task 8: unlimited
  | Maximum stacksize for task 9: unlimited
  | Maximum stacksize for task 10: unlimited
  | Maximum stacksize for task 11: unlimited
  | Maximum stacksize for task 12: unlimited
  | Maximum stacksize for task 13: unlimited
  | Maximum stacksize for task 14: unlimited
  | Maximum stacksize for task 15: unlimited
  | Maximum stacksize for task 16: unlimited
  | Maximum stacksize for task 17: unlimited
  | Maximum stacksize for task 18: unlimited
  | Maximum stacksize for task 19: unlimited
  | Maximum stacksize for task 20: unlimited
  | Maximum stacksize for task 21: unlimited
  | Maximum stacksize for task 22: unlimited
  | Maximum stacksize for task 23: unlimited
  | Maximum stacksize for task 24: unlimited
  | Maximum stacksize for task 25: unlimited
  | Maximum stacksize for task 26: unlimited
  | Maximum stacksize for task 27: unlimited
  | Maximum stacksize for task 28: unlimited
  | Maximum stacksize for task 29: unlimited
  | Maximum stacksize for task 30: unlimited
  | Maximum stacksize for task 31: unlimited
  | Current stacksize for task 0: unlimited
  | Current stacksize for task 1: unlimited
  | Current stacksize for task 2: unlimited
  | Current stacksize for task 3: unlimited
  | Current stacksize for task 4: unlimited
  | Current stacksize for task 5: unlimited
  | Current stacksize for task 6: unlimited
  | Current stacksize for task 7: unlimited
  | Current stacksize for task 8: unlimited
  | Current stacksize for task 9: unlimited
  | Current stacksize for task 10: unlimited
  | Current stacksize for task 11: unlimited
  | Current stacksize for task 12: unlimited
  | Current stacksize for task 13: unlimited
  | Current stacksize for task 14: unlimited
  | Current stacksize for task 15: unlimited
  | Current stacksize for task 16: unlimited
  | Current stacksize for task 17: unlimited
  | Current stacksize for task 18: unlimited
  | Current stacksize for task 19: unlimited
  | Current stacksize for task 20: unlimited
  | Current stacksize for task 21: unlimited
  | Current stacksize for task 22: unlimited
  | Current stacksize for task 23: unlimited
  | Current stacksize for task 24: unlimited
  | Current stacksize for task 25: unlimited
  | Current stacksize for task 26: unlimited
  | Current stacksize for task 27: unlimited
  | Current stacksize for task 28: unlimited
  | Current stacksize for task 29: unlimited
  | Current stacksize for task 30: unlimited
  | Current stacksize for task 31: unlimited
 
  Consistency checks for the contents of control.in are next.
 
  MPI_IN_PLACE appears to work with this MPI implementation.
  | Keeping use_mpi_in_place .true. (see manual).
  Target number of points in a grid batch is not set. Defaulting to  100
  Method for grid partitioning is not set. Defaulting to parallel hash+maxmin partitioning.
  Batch size limit is not set. Defaulting to    200
  By default, will store active basis functions for each batch.
  If in need of memory, prune_basis_once .false. can be used to disable this option.
  communication_type for Hartree potential was not specified.
  Defaulting to calc_hartree .
  Defaulting to Pulay charge density mixer.
  Pulay mixer: Number of relevant iterations not set.
  Defaulting to    8 iterations.
  Pulay mixer: Number of initial linear mixing iterations not set.
  Defaulting to    0 iterations.
  Work space size for distributed Hartree potential not set.
  Defaulting to   0.200000E+03 MB.
  Mixing parameter for charge density mixing has not been set.
  Using default: charge_mix_param =     0.0500.
  The mixing parameter will be adjusted in iteration number     2 of each s.c.f. cycle (i.e., each geometry step).
  Algorithm-dependent basis array size parameters:
  | n_max_pulay                         :        8
  Maximum number of self-consistency iterations not provided.
  Presetting  1000 iterations.
  Presetting      1001 iterations before the initial mixing cycle
  is restarted anyway using the sc_init_iter criterion / keyword.
  Presetting a factor      1.000 between actual scf density residual
  and density convergence criterion sc_accuracy_rho below which sc_init_iter
  takes no effect.
 * No s.c.f. convergence criteria (sc_accuracy_*) were provided in control.in.
 * The run will proceed with a reasonable default guess, but please check whether.
 * the s.c.f. cycles seem to take too much or too little time.
  Calculation of forces was not defined in control.in. No forces will be calculated.
  Geometry relaxation not requested: no relaxation will be performed.
 * Notice: The s.c.f. convergence criterion sc_accuracy_rho was not provided.
 * We used to stop in this case, and ask the user to provide reasonable
 * scf convergence criteria. However, this led some users to employ criteria
 * that led to extremely long run times, e.g., for simple relaxation.
 * We now preset a default value for sc_accuracy_rho if it is not set.
 * You may still wish to check if this setting is too tight or too loose for your needs.
 * Based on n_atoms and forces and force-correction status, FHI-aims chose sc_accuracy_rho =  0.391578E-05 .
  No accuracy limit for integral partition fn. given. Defaulting to  0.1000E-14.
  No threshold value for u(r) in integrations given. Defaulting to  0.1000E-05.
  No occupation type (smearing scheme) given. Defaulting to Gaussian broadening, width =  0.1000E-01 eV.
  The width will be adjusted in iteration number     2 of each s.c.f. cycle (i.e., each geometry step).
  No accuracy for occupation numbers given. Defaulting to  0.1000E-12.
  No threshold value for occupation numbers given. Defaulting to  0.0000E+00.
  No accuracy for fermi level given. Defaulting to  0.1000E-19.
  Maximum # of iterations to find E_F not set. Defaulting to  200.
  Preferred method for the eigenvalue solver ('KS_method') not specified in 'control.in'.
  Defaulting to serial version, LAPACK (via ELSI), since more k-points than CPUs available.
  Will not use alltoall communication since running on < 1024 CPUs.
  Threshold for basis singularities not set.
  Default threshold for basis singularities:  0.1000E-04
  partition_type (choice of integration weights) for integrals was not specified.
  | Using a version of the partition function of Stratmann and coworkers ('stratmann_sparse').
  | At each grid point, the set of atoms used to build the partition table is smoothly restricted to
  | only those atoms whose free-atom density would be non-zero at that grid point.
  Partitioning for Hartree potential was not defined. Using partition_type for integrals.
  | Adjusted default value of keyword multip_moments_threshold to:       0.10000000E-11
  | This value may affect high angular momentum components of the Hartree potential in periodic systems.
  Spin handling was not defined in control.in. Defaulting to unpolarized case.
  Angular momentum expansion for Kerker preconditioner not set explicitly.
  | Using default value of   0
  No explicit requirement for turning off preconditioner.
  | By default, it will be turned off when the charge convergence reaches
  | sc_accuracy_rho  =   0.391578E-05
  No special mixing parameter while Kerker preconditioner is on.
  Using default: charge_mix_param =     0.0500.
  No q(lm)/r^(l+1) cutoff set for long-range Hartree potential.
  | Using default value of  0.100000E-09 .
  | Verify using the multipole_threshold keyword.
  Defaulting to new monopole extrapolation.
  Density update method: automatic selection selected.
  Using density matrix based charge density update.
  Using density matrix based charge density update.
  Using packed matrix style: index .
  Defaulting to use time-reversal symmetry for k-point grid.
  Charge integration errors on the 3D integration grid will be compensated
  by explicit normalization and distribution of residual charges.
  Use the "compensate_multipole_errors" flag to change this behaviour.
  Set 'collect_eigenvectors' to be '.true.' for all serial calculations. This is mandatory.
  Set 'collect_eigenvectors' to be '.true.' for KS_method lapack_fast and serial.
  Found potential conflicts with setting 'use_local_index' for this calculation. Will not set it.
 
  Consistency checks for the contents of geometry.in are next.
 

  Range separation radius for Ewald summation (hartree_convergence_parameter):      4.77692198 bohr.
 * Warning: Initial charge and total charge of the system are inconsistent.
 * Selected charge in control.in:     1.0000* Sum of initial charges in geometry.in:     0.0000
  Number of empty states per atom not set in control.in - providing a guess from actual geometry.
  | Total number of empty states used during s.c.f. cycle:      356
  If you use a very high smearing, use empty_states (per atom!) in control.in to increase this value.

  Structure-dependent array size parameters: 
  | Maximum number of distinct radial functions  :       23
  | Maximum number of basis functions            :     1832
  | Number of Kohn-Sham states (occupied + empty):      948
------------------------------------------------------------
  After read_input_data [GB]:    660.89

  Performing system and environment tests:
  *** Environment variable OMP_NUM_THREADS is not set
  *** For performance reasons you might want to set it to 1
  | Checking for ScaLAPACK...
  | Testing pdtran()...
  | All pdtran() tests passed.
  After prepare_system [GB]:    660.91

------------------------------------------------------------
          Preparing all fixed parts of the calculation.
------------------------------------------------------------
  Determining machine precision:
    2.225073858507201E-308
  Setting up grids for atomic and cluster calculations.

  Creating wave function, potential, and density for free atoms.
  Runtime choices for atomic solver:
  | atomic solver xc        : PBE
  | compute density gradient: 1
  | compute kinetic density : F

  Species: Ti

  List of occupied orbitals and eigenvalues:
    n    l              occ      energy [Ha]    energy [eV]
    1    0           2.0000      -179.959082     -4896.9358
    2    0           2.0000       -19.727662      -536.8170
    3    0           2.0000        -2.283029       -62.1244
    4    0           2.0000        -0.148384        -4.0377
    2    1           6.0000       -16.317278      -444.0157
    3    1           6.0000        -1.409348       -38.3503
    3    2           2.0000        -0.139340        -3.7916


  Species: O

  List of occupied orbitals and eigenvalues:
    n    l              occ      energy [Ha]    energy [eV]
    1    0           2.0000       -18.926989      -515.0296
    2    0           2.0000        -0.880247       -23.9527
    2    1           4.0000        -0.331514        -9.0210


  Species: F

  List of occupied orbitals and eigenvalues:
    n    l              occ      energy [Ha]    energy [eV]
    1    0           2.0000       -24.399611      -663.9472
    2    0           2.0000        -1.098702       -29.8972
    2    1           5.0000        -0.408210       -11.1080


  Adding cutoff potential to free-atom effective potential.
  Creating fixed part of basis set: Ionic, confined, hydrogenic.
 
  Ti                   ion:

  List of free ionic orbitals and eigenvalues:
    n    l      energy [Ha]    energy [eV]
    1    0      -180.819616     -4920.3521
    2    0       -20.608761      -560.7929
    3    0        -3.115729       -84.7833
    4    0        -0.697188       -18.9715
    2    1       -17.196209      -467.9327
    3    1        -2.231296       -60.7167
    3    2        -0.911363       -24.7995


  List of ionic basis orbitals and eigenvalues:
    n    l      energy [Ha]    energy [eV]    outer radius [A]
    4    1        -0.517739       -14.0884       4.592117
    4    0        -0.696824       -18.9615       4.536321

 
  Ti                   hydrogenic:
 
  List of hydrogenic basis orbitals: 
    n    l      effective z      eigenvalue [eV]  inner max. [A]     outer max. [A]     outer radius [A]   
    4    3         8.000000       -54.4222           1.059019           1.059019           4.267343
    3    2         2.700000       -10.7798           1.726925           1.726925           4.592117
 
 
  O                    hydrogenic:
 
  List of hydrogenic basis orbitals: 
    n    l      effective z      eigenvalue [eV]  inner max. [A]     outer max. [A]     outer radius [A]   
    2    1         1.800000       -10.9749           1.164242           1.164242           4.578029
    3    2         7.600000       -87.3180           0.624125           0.624125           3.251020
    3    0         6.400000       -61.9207           0.061167           1.081902           4.001998
 
 
  F                    hydrogenic:
 
  List of hydrogenic basis orbitals: 
    n    l      effective z      eigenvalue [eV]  inner max. [A]     outer max. [A]     outer radius [A]   
    2    1         1.700000        -9.7616           1.243167           1.243167           4.598524
    3    2         7.400000       -82.7828           0.642437           0.642437           3.305741
    3    0         6.800000       -69.9026           0.057798           1.022307           3.781556
 
  Creating atomic-like basis functions for current effective potential.

  Species Ti                  :

  List of atomic basis orbitals and eigenvalues:
    n    l      energy [Ha]    energy [eV]    outer radius [A]
    1    0      -179.959082     -4896.9358       0.490254
    2    0       -19.727662      -536.8170       1.491292
    3    0        -2.283029       -62.1244       4.014314
    4    0        -0.148384        -4.0377       4.592117
    2    1       -16.317278      -444.0157       1.585290
    3    1        -1.409348       -38.3503       4.267343
    3    2        -0.139340        -3.7916       4.536321


  Species O                   :

  List of atomic basis orbitals and eigenvalues:
    n    l      energy [Ha]    energy [eV]    outer radius [A]
    1    0       -18.926989      -515.0296       1.415765
    2    0        -0.880247       -23.9527       4.413171
    2    1        -0.331514        -9.0210       4.522403


  Species F                   :

  List of atomic basis orbitals and eigenvalues:
    n    l      energy [Ha]    energy [eV]    outer radius [A]
    1    0       -24.399611      -663.9472       1.258458
    2    0        -1.098702       -29.8972       4.325857
    2    1        -0.408210       -11.1080       4.487453

  Assembling full basis from fixed parts.
  | Species Ti :   atomic orbital   1 s accepted.
  | Species Ti :   atomic orbital   2 s accepted.
  | Species Ti :   atomic orbital   3 s accepted.
  | Species Ti :    ionic orbital   4 s accepted.
  | Species Ti :   atomic orbital   4 s accepted.
  | Species Ti :   atomic orbital   2 p accepted.
  | Species Ti :   atomic orbital   3 p accepted.
  | Species Ti :    ionic orbital   4 p accepted.
  | Species Ti :   atomic orbital   3 d accepted.
  | Species Ti :    hydro orbital   3 d accepted.
  | Species Ti :    hydro orbital   4 f accepted.
  | Species O :   atomic orbital   1 s accepted.
  | Species O :    hydro orbital   3 s accepted.
  | Species O :   atomic orbital   2 s accepted.
  | Species O :   atomic orbital   2 p accepted.
  | Species O :    hydro orbital   2 p accepted.
  | Species O :    hydro orbital   3 d accepted.
  | Species F :   atomic orbital   1 s accepted.
  | Species F :    hydro orbital   3 s accepted.
  | Species F :   atomic orbital   2 s accepted.
  | Species F :   atomic orbital   2 p accepted.
  | Species F :    hydro orbital   2 p accepted.
  | Species F :    hydro orbital   3 d accepted.
 
  Basis size parameters after reduction:
  | Total number of radial functions:       23
  | Total number of basis functions :     1832
 
  Per-task memory consumption for arrays in subroutine allocate_ext:
  |           8.190488MB.
  Testing on-site integration grid accuracy.
  |  Species  Function  <phi|h_atom|phi> (log., in eV)  <phi|h_atom|phi> (rad., in eV)
           1        1              -4896.9357674450              -4896.9322830202
           1        2               -536.8170048508               -536.8169722333
           1        3                -62.1243896260                -62.1243889283
           1        4                 -3.2653235630                 -3.2692838808
           1        5                  6.7987747276                  6.5460721883 ***
           1        6               -444.0157161949               -444.0157165810
           1        7                -38.3503235548                -38.3503234963
           1        8                  0.2923930877                  0.2745948116
           1        9                 -3.7933400649                 -3.7959244177
           1       10                  6.3288803616                  6.2510614929 ***
           1       11                 27.8451455747                 27.8452636416
           2       12               -515.0295626295               -515.0294562738
           2       13                 15.1698434419                 15.1699322204
           2       14                -21.6038822678                -21.6039118105
           2       15                 -9.0211123393                 -9.0212703513
           2       16                  8.3047696391                  8.2854840999
           2       17                 45.8428042125                 45.8427461222
           3       18               -663.9471986398               -663.9470363334
           3       19                 16.8514011578                 16.8512525338
           3       20                -28.4490593856                -28.4490661472
           3       21                -11.1080115307                -11.1080620173
           3       22                  7.1940182175                  7.1685154137
           3       23                 44.8544281765                 44.8543763625
 * Note: Onsite integrals marked "***" above are less accurate than
 * onsite_accuracy_threshold =    0.03000 eV. Usually, this is harmless.
 * When in doubt, tighten the "radial" and/or "radial_multiplier" flags to check.

  Preparing densities etc. for the partition functions (integrals / Hartree potential).

  Preparations completed.
  max(cpu_time)          :      0.368 s.
  Wall clock time (cpu1) :      0.368 s.
------------------------------------------------------------
  After prepare_scf [GB]:    658.85

  Initializing index lists of integration centers etc. from given atomic structure:
  Mapping all atomic coordinates to central unit cell.

  Initializing the k-points
  Using symmetry for reducing the k-points
  | k-points reduced from:       64 to       36
  | Number of k-points                             :        36
  The eigenvectors in the calculations are COMPLEX.
  | K-points in task   0:         1
  | K-points in task   1:         2
  | K-points in task   2:         2
  | K-points in task   3:         2
  | K-points in task   4:         2
  | K-points in task   5:         1
  | K-points in task   6:         1
  | K-points in task   7:         1
  | K-points in task   8:         1
  | K-points in task   9:         1
  | K-points in task  10:         1
  | K-points in task  11:         1
  | K-points in task  12:         1
  | K-points in task  13:         1
  | K-points in task  14:         1
  | K-points in task  15:         1
  | K-points in task  16:         1
  | K-points in task  17:         1
  | K-points in task  18:         1
  | K-points in task  19:         1
  | K-points in task  20:         1
  | K-points in task  21:         1
  | K-points in task  22:         1
  | K-points in task  23:         1
  | K-points in task  24:         1
  | K-points in task  25:         1
  | K-points in task  26:         1
  | K-points in task  27:         1
  | K-points in task  28:         1
  | K-points in task  29:         1
  | K-points in task  30:         1
  | K-points in task  31:         1
  | Number of basis functions in the Hamiltonian integrals :     11376
  | Number of basis functions in a single unit cell        :      1832
  | Number of centers in hartree potential         :      3311
  | Number of centers in hartree multipole         :      1667
  | Number of centers in electron density summation:      1361
  | Number of centers in basis integrals           :      1416
  | Number of centers in integrals                 :       694
  | Number of centers in hamiltonian               :      1379
  | Consuming         25 KiB for k_phase.
  | Number of super-cells (origin) [n_cells]                     :         135
  | Number of super-cells (after PM_index) [n_cells]             :          46
  | Number of super-cells in hamiltonian [n_cells_in_hamiltonian]:          46
  | Size of matrix packed + index [n_hamiltonian_matrix_size] :     3069910
  After initialize_bc_dependent_lists [GB]:    658.75

------------------------------------------------------------
          Begin self-consistency loop: Initialization.

          Date     :  20241006, Time     :  051610.014
------------------------------------------------------------
  Available memory per node after initialize_hartree_non_periodic_ewald [GB]:    658.75
  | Estimated reciprocal-space cutoff momentum G_max:         1.93479930 bohr^-1 .
  | Reciprocal lattice points for long-range Hartree potential:    2744
  Available memory per node after initialize_recip_hartree_potential [GB]:    658.75
  Available memory per node after initialize_scalapack [GB]:    658.75
  Available memory per node after aims_elsi_init_scf [GB]:    658.75
  Available memory per node after initialize_fixed_grids [GB]:    658.75
  Partitioning the integration grid into batches with parallel hashing+maxmin method.
  | Number of batches:     6899
  | Maximal batch size:     181
  | Minimal batch size:      10
  | Average batch size:      85.334
  | Standard deviation of batch sizes:      32.105

  Integration load balanced across    32 MPI tasks.
  Work distribution over tasks is as follows:
  Task     0 has      18439 integration points.
  Task     1 has      18373 integration points.
  Task     2 has      18394 integration points.
  Task     3 has      18402 integration points.
  Task     4 has      18371 integration points.
  Task     5 has      18359 integration points.
  Task     6 has      18368 integration points.
  Task     7 has      18414 integration points.
  Task     8 has      18363 integration points.
  Task     9 has      18360 integration points.
  Task    10 has      18406 integration points.
  Task    11 has      18359 integration points.
  Task    12 has      18383 integration points.
  Task    13 has      18380 integration points.
  Task    14 has      18409 integration points.
  Task    15 has      18405 integration points.
  Task    16 has      18412 integration points.
  Task    17 has      18356 integration points.
  Task    18 has      18445 integration points.
  Task    19 has      18402 integration points.
  Task    20 has      18366 integration points.
  Task    21 has      18367 integration points.
  Task    22 has      18458 integration points.
  Task    23 has      18356 integration points.
  Task    24 has      18400 integration points.
  Task    25 has      18443 integration points.
  Task    26 has      18375 integration points.
  Task    27 has      18405 integration points.
  Task    28 has      18452 integration points.
  Task    29 has      18378 integration points.
  Task    30 has      18460 integration points.
  Task    31 has      18462 integration points.
  Available memory per node after partition_grid [GB]:    660.38
  Initializing partition tables, free-atom densities, potentials, etc. across the integration grid (initialize_grid_storage).
  | initialize_grid_storage: Actual outermost partition radius vs. multipole_radius_free
  | (-- VB: in principle, multipole_radius_free should be larger, hence this output)
  | Species        1: Confinement radius =              4.999999999999999 AA, multipole_radius_free =              5.002391649902235 AA.
  | Species        1: outer_partition_radius set to              5.002391649902235 AA .
  | Species        2: Confinement radius =              4.999999999999999 AA, multipole_radius_free =              5.048384829883283 AA.
  | Species        2: outer_partition_radius set to              5.048384829883283 AA .
  | Species        3: Confinement radius =              4.999999999999999 AA, multipole_radius_free =              5.009370088163274 AA.
  | Species        3: outer_partition_radius set to              5.009370088163274 AA .
  | The sparse table of interatomic distances needs       3396.53 kbyte instead of     16040.45 kbyte of memory.
  | Net number of integration points:   588722
  | of which are non-zero points    :   488535
  | Numerical average free-atom electrostatic potential    :     -5.43048660 eV
  Available memory per node after initialize_grid_storage_p1 [GB]:    660.57
  Renormalizing the initial density to the exact electron count on the 3D integration grid.
  | Initial density: Formal number of electrons (from input files) :    1185.0000000000
  | Integrated number of electrons on 3D grid     :    1184.9956516181
  | Charge integration error                      :      -0.0043483819
  | Normalization factor for density and gradient :       1.0000036695
  Renormalizing the free-atom superposition density to the exact electron count on the 3D integration grid.
  | Formal number of electrons (from input files) :    1184.0000000000
  | Integrated number of electrons on 3D grid     :    1184.9956516181
  | Charge integration error                      :      -0.0043483819
  | Normalization factor for density and gradient :       1.0000036695
  Obtaining max. number of non-zero basis functions in each batch (get_n_compute_maxes).
  | Maximal number of non-zero basis functions:      826 in task     0
  | Maximal number of non-zero basis functions:      838 in task     1
  | Maximal number of non-zero basis functions:      838 in task     2
  | Maximal number of non-zero basis functions:      852 in task     3
  | Maximal number of non-zero basis functions:      838 in task     4
  | Maximal number of non-zero basis functions:      845 in task     5
  | Maximal number of non-zero basis functions:      831 in task     6
  | Maximal number of non-zero basis functions:      830 in task     7
  | Maximal number of non-zero basis functions:      838 in task     8
  | Maximal number of non-zero basis functions:      826 in task     9
  | Maximal number of non-zero basis functions:      861 in task    10
  | Maximal number of non-zero basis functions:      833 in task    11
  | Maximal number of non-zero basis functions:      829 in task    12
  | Maximal number of non-zero basis functions:      839 in task    13
  | Maximal number of non-zero basis functions:      853 in task    14
  | Maximal number of non-zero basis functions:      817 in task    15
  | Maximal number of non-zero basis functions:      830 in task    16
  | Maximal number of non-zero basis functions:      840 in task    17
  | Maximal number of non-zero basis functions:      831 in task    18
  | Maximal number of non-zero basis functions:      827 in task    19
  | Maximal number of non-zero basis functions:      806 in task    20
  | Maximal number of non-zero basis functions:      816 in task    21
  | Maximal number of non-zero basis functions:      842 in task    22
  | Maximal number of non-zero basis functions:      853 in task    23
  | Maximal number of non-zero basis functions:      811 in task    24
  | Maximal number of non-zero basis functions:      829 in task    25
  | Maximal number of non-zero basis functions:      830 in task    26
  | Maximal number of non-zero basis functions:      823 in task    27
  | Maximal number of non-zero basis functions:      861 in task    28
  | Maximal number of non-zero basis functions:      810 in task    29
  | Maximal number of non-zero basis functions:      811 in task    30
  | Maximal number of non-zero basis functions:      870 in task    31
  Available memory per node after get_n_compute_maxes_p1 [GB]:    660.22
  Allocating       26.500 MB for KS_eigenvector_complex
  Available memory per node after allocate_matrices [GB]:    659.67
  Available memory per node after init_comm_sparse_local_matrix_scalapack [GB]:    659.44
  Integrating Hamiltonian matrix: batch-based integration.
  Time summed over all CPUs for integration: real work       56.732 s, elapsed       89.064 s => Consider using load balancing!
  Available memory per node after integrate hamiltonian matrix [GB]:    659.14
  Integrating overlap matrix.
  Time summed over all CPUs for integration: real work       41.997 s, elapsed       69.755 s
  Available memory per node after integrate ovlp matrix [GB]:    655.46
  Available memory per node after ASI_callbacks invoke [GB]:    655.46
  Available memory per node after save_overlap_scalapack [GB]:    655.46

  Updating Kohn-Sham eigenvalues and eigenvectors using ELSI and the (modified) LAPACK eigensolver.
  Singularity check in k-point 32, task 0 (analysis for other k-points/tasks may follow below):
  Overlap matrix is not singular
  | Lowest and highest eigenvalues :  0.6510E-03,  0.7877E+01
  Finished singularity check of overlap matrix
  | Time :     3.900 s
  Starting LAPACK eigensolver
  Finished Cholesky decomposition
  | Time :     0.640 s
  Finished transformation to standard eigenproblem
  | Time :     0.916 s
  Finished solving standard eigenproblem
  | Time :     4.420 s
  Finished back-transformation of eigenvectors
  | Time :     0.479 s

  Obtaining occupation numbers and electronic chemical potential using ELSI.
  | Note that, for insulating systems, the printed 'chemical potential' value is not uniquely defined.
  | It can be anywhere in the energy gap, as long as it correctly separates occupied and unoccupied states.
  | In systems with a gap, the physically relevant chemical potential is the VBM or HOMO.

  | Chemical potential (Fermi level):    -5.30426508 eV
  Available memory per node after advance_KS_solution [GB]:    648.22
  Writing Kohn-Sham eigenvalues.
  K-point:       1 at    0.000000    0.000000    0.000000 (in units of recip. lattice)

  State    Occupation    Eigenvalue [Ha]    Eigenvalue [eV]
      1       2.00000        -179.969247        -4897.21237
      2       2.00000        -179.969247        -4897.21237
      3       2.00000        -179.969247        -4897.21237
      4       2.00000        -179.969247        -4897.21237
      5       2.00000        -179.969246        -4897.21235
      6       2.00000        -179.969246        -4897.21235
      7       2.00000        -179.969246        -4897.21235
      8       2.00000        -179.969246        -4897.21235
      9       2.00000        -179.969246        -4897.21235
     10       2.00000        -179.969246        -4897.21235
     11       2.00000        -179.969246        -4897.21235
     12       2.00000        -179.969246        -4897.21235
     13       2.00000        -179.969246        -4897.21235
     14       2.00000        -179.969246        -4897.21235
     15       2.00000        -179.969246        -4897.21235
     16       2.00000        -179.969246        -4897.21234
     17       2.00000        -179.969193        -4897.21092
     18       2.00000        -179.969193        -4897.21092
     19       2.00000        -179.969193        -4897.21092
     20       2.00000        -179.969193        -4897.21092
     21       2.00000        -179.969193        -4897.21090
     22       2.00000        -179.969193        -4897.21090
     23       2.00000        -179.969193        -4897.21090
     24       2.00000        -179.969193        -4897.21090
     25       2.00000        -179.965321        -4897.10554
     26       2.00000        -179.965321        -4897.10554
     27       2.00000        -179.965320        -4897.10553
     28       2.00000        -179.965320        -4897.10553
     29       2.00000        -179.965320        -4897.10553
     30       2.00000        -179.964780        -4897.09081
     31       2.00000        -179.964674        -4897.08793
     32       2.00000        -179.964674        -4897.08793
     33       2.00000         -24.506703         -666.86131
     34       2.00000         -19.738838         -537.12111
     35       2.00000         -19.738838         -537.12111
     36       2.00000         -19.738838         -537.12111
     37       2.00000         -19.738838         -537.12111
     38       2.00000         -19.738837         -537.12109
     39       2.00000         -19.738837         -537.12109
     40       2.00000         -19.738837         -537.12109
     41       2.00000         -19.738837         -537.12109
     42       2.00000         -19.738837         -537.12109
     43       2.00000         -19.738837         -537.12109
     44       2.00000         -19.738837         -537.12109
     45       2.00000         -19.738837         -537.12109
     46       2.00000         -19.738837         -537.12109
     47       2.00000         -19.738837         -537.12109
     48       2.00000         -19.738837         -537.12109
     49       2.00000         -19.738837         -537.12108
     50       2.00000         -19.738764         -537.11911
     51       2.00000         -19.738764         -537.11910
     52       2.00000         -19.738764         -537.11910
     53       2.00000         -19.738764         -537.11910
     54       2.00000         -19.738763         -537.11908
     55       2.00000         -19.738763         -537.11908
     56       2.00000         -19.738763         -537.11908
     57       2.00000         -19.738763         -537.11908
     58       2.00000         -19.734529         -537.00387
     59       2.00000         -19.734529         -537.00387
     60       2.00000         -19.734529         -537.00386
     61       2.00000         -19.734529         -537.00386
     62       2.00000         -19.734529         -537.00385
     63       2.00000         -19.733948         -536.98805
     64       2.00000         -19.733835         -536.98497
     65       2.00000         -19.733835         -536.98497
     66       2.00000         -19.034898         -517.96592
     67       2.00000         -19.034898         -517.96592
     68       2.00000         -19.034898         -517.96592
     69       2.00000         -19.034898         -517.96592
     70       2.00000         -19.034897         -517.96591
     71       2.00000         -19.034897         -517.96591
     72       2.00000         -19.034897         -517.96591
     73       2.00000         -19.034897         -517.96591
     74       2.00000         -19.034897         -517.96591
     75       2.00000         -19.034897         -517.96591
     76       2.00000         -19.034897         -517.96591
     77       2.00000         -19.034896         -517.96588
     78       2.00000         -19.034895         -517.96586
     79       2.00000         -19.034895         -517.96586
     80       2.00000         -19.034895         -517.96586
     81       2.00000         -19.034895         -517.96586
     82       2.00000         -19.034879         -517.96542
     83       2.00000         -19.034879         -517.96542
     84       2.00000         -19.034879         -517.96542
     85       2.00000         -19.034879         -517.96542
     86       2.00000         -19.034879         -517.96542
     87       2.00000         -19.034879         -517.96542
     88       2.00000         -19.034879         -517.96542
     89       2.00000         -19.034879         -517.96542
     90       2.00000         -19.034879         -517.96542
     91       2.00000         -19.034879         -517.96542
     92       2.00000         -19.034879         -517.96542
     93       2.00000         -19.034879         -517.96542
     94       2.00000         -19.034879         -517.96542
     95       2.00000         -19.034879         -517.96542
     96       2.00000         -19.034879         -517.96542
     97       2.00000         -19.034879         -517.96542
     98       2.00000         -19.034838         -517.96428
     99       2.00000         -19.034838         -517.96428
    100       2.00000         -19.034838         -517.96428
    101       2.00000         -19.034837         -517.96428
    102       2.00000         -19.034837         -517.96428
    103       2.00000         -19.034837         -517.96428
    104       2.00000         -19.034837         -517.96428
    105       2.00000         -19.034837         -517.96428
    106       2.00000         -19.034800         -517.96326
    107       2.00000         -19.034800         -517.96326
    108       2.00000         -19.034777         -517.96264
    109       2.00000         -19.034777         -517.96264
    110       2.00000         -19.034680         -517.95999
    111       2.00000         -19.034680         -517.95999
    112       2.00000         -19.034657         -517.95937
    113       2.00000         -19.034657         -517.95937
    114       2.00000         -19.034559         -517.95669
    115       2.00000         -19.034559         -517.95669
    116       2.00000         -19.034538         -517.95612
    117       2.00000         -19.002099         -517.07341
    118       2.00000         -19.002099         -517.07341
    119       2.00000         -19.002099         -517.07341
    120       2.00000         -19.002099         -517.07341
    121       2.00000         -18.959814         -515.92280
    122       2.00000         -18.959814         -515.92280
    123       2.00000         -18.959814         -515.92280
    124       2.00000         -18.959814         -515.92280
    125       2.00000         -16.328485         -444.32067
    126       2.00000         -16.328485         -444.32067
    127       2.00000         -16.328485         -444.32067
    128       2.00000         -16.328485         -444.32067
    129       2.00000         -16.328484         -444.32066
    130       2.00000         -16.328484         -444.32066
    131       2.00000         -16.328484         -444.32066
    132       2.00000         -16.328484         -444.32066
    133       2.00000         -16.328484         -444.32066
    134       2.00000         -16.328484         -444.32066
    135       2.00000         -16.328484         -444.32066
[...]
  However, this system has fractional occupation numbers. Since we use a finite k-point grid,
  this material is metallic within the approximate finite broadening function (occupation_type)
  applied to determine the occupation numbers.

  | Chemical Potential                          :    -9.22453038 eV
  | Note that, for insulating systems, the printed 'chemical potential' value is not uniquely defined.
  | It can be anywhere in the energy gap, as long as it correctly separates occupied and unoccupied states.
  | In systems with a gap, the physically relevant chemical potential is the VBM or HOMO.

  Self-consistency cycle converged.


------------------------------------------------------------
  End self-consistency iteration #   114       :  max(cpu_time)    wall_clock(cpu1)
  | Time for this iteration                     :       25.494 s          25.502 s
  | Charge density update                       :        0.000 s           0.000 s
  | Density mixing                              :        4.668 s           4.671 s
  | Hartree multipole update                    :        0.010 s           0.010 s
  | Hartree multipole summation                 :        0.648 s           0.649 s
  | Integration                                 :        2.375 s           2.376 s
  | Solution of K.-S. eqns.                     :       17.790 s          17.791 s
  | Total energy evaluation                     :        0.001 s           0.001 s

  Partial memory accounting:
  | Current value for overall tracked memory usage:
  |   Minimum:       95.374 MB (on task 17)
  |   Maximum:      121.900 MB (on task  3)
  |   Average:       98.710 MB
  | Peak value for overall tracked memory usage:
  |   Minimum:      300.264 MB (on task 17 after allocating eval_tmp)
  |   Maximum:      326.790 MB (on task  3 after allocating eval_tmp)
  |   Average:      303.599 MB
  | Largest tracked array allocation so far:
  |   Minimum:       51.212 MB (KS_eigenvector_complex on task  0)
  |   Maximum:       53.001 MB (KS_eigenvector_complex on task  1)
  |   Average:       51.436 MB
  Note:  These values currently only include a subset of arrays which are explicitly tracked.
  The "true" memory usage will be greater.
------------------------------------------------------------

  Energy and forces in a compact form:
  | Total energy uncorrected      :         -0.869227517358920E+06 eV
  | Total energy corrected        :         -0.869227563879729E+06 eV  <-- do not rely on this value for anything but (periodic) metals
  | Electronic free energy        :         -0.869227610400538E+06 eV

  ------------------------------------ 
  Start decomposition of the XC Energy 
  ------------------------------------ 
  X and C from original XC functional choice 
  Hartree-Fock Energy :          0.000000000 Ha              0.000000000 eV
  X Energy            :      -1817.087864022 Ha         -49445.476538198 eV
  C Energy            :        -46.777954196 Ha          -1272.892897743 eV
  XC Energy w/o HF    :      -1863.865818218 Ha         -50718.369435941 eV
  Total XC Energy     :      -1863.865818218 Ha         -50718.369435941 eV
  ------------------------------------ 
  LDA X and C from self-consistent density 
  X Energy LDA        :      -1686.938313470 Ha         -45903.927075616 eV
  C Energy LDA        :        -91.586195861 Ha          -2492.187190469 eV
  ------------------------------------ 
  End decomposition of the XC Energy 
  ------------------------------------ 

------------------------------------------------------------

  ------------------------------------------------------------
                   Starting Mulliken Analysis
  ------------------------------------------------------------

  Performing Mulliken charge analysis on all atoms.
  Full analysis will be written to separate file 'Mulliken.out'.
  Summary of the per-atom charge analysis:
  |
  |  atom       electrons          charge             l=0             l=1             l=2             l=3
  |     1       21.328384        0.671616        6.430345       12.391401        2.448386        0.058253
  |     2       21.362471        0.637529        6.483401       12.417213        2.403219        0.058638
  |     3        9.441785       -0.441785        3.934184        5.488349        0.019253
  |     4        8.604032       -0.604032        3.848706        4.742845        0.012481
  |     5        8.637184       -0.637184        3.847607        4.780172        0.009405
  |     6        8.628538       -0.628538        3.847018        4.771609        0.009911
  |     7       20.747027        1.252973        5.963326       12.497888        2.142365        0.143449
  |     8       20.750376        1.249624        5.967679       12.498592        2.140112        0.143994
  |     9        8.623093       -0.623093        3.846231        4.766914        0.009947
  |    10        8.598060       -0.598060        3.850173        4.737454        0.010433
  |    11        8.621668       -0.621668        3.846352        4.765442        0.009874
  |    12        8.622529       -0.622529        3.847399        4.765269        0.009862
  |    13       20.748798        1.251202        5.961615       12.501820        2.141874        0.143489
  |    14       20.741149        1.258851        5.960673       12.502046        2.134154        0.144275
  |    15        8.622645       -0.622645        3.847445        4.765336        0.009865
  |    16        8.599700       -0.599700        3.849054        4.740307        0.010339
  |    17        8.607577       -0.607577        3.845329        4.751770        0.010478
  |    18        8.583624       -0.583624        3.856963        4.716477        0.010184
  |    19       20.854162        1.145838        6.028932       12.507918        2.174274        0.143038
  |    20       20.931647        1.068353        6.048591       12.525906        2.212544        0.144607
  |    21        8.583540       -0.583540        3.856985        4.716370        0.010184
  |    22        8.324618       -0.324618        3.897780        4.414969        0.011868
  |    23        8.093474       -0.093474        3.954456        4.132042        0.006976
  |    24       21.328385        0.671615        6.430345       12.391401        2.448387        0.058253
  |    25       21.349396        0.650604        6.453211       12.444405        2.390291        0.061489
  |    26        8.637376       -0.637376        3.852240        4.769232        0.015904
  |    27        8.604032       -0.604032        3.848706        4.742845        0.012481
  |    28        8.637184       -0.637184        3.847607        4.780172        0.009405
  |    29        8.622871       -0.622871        3.847573        4.765403        0.009895
  |    30       20.747027        1.252973        5.963326       12.497888        2.142365        0.143449
  |    31       20.751182        1.248818        5.968031       12.498588        2.140559        0.144005
  |    32        8.624043       -0.624043        3.846228        4.767869        0.009946
  |    33        8.598061       -0.598061        3.850173        4.737454        0.010433
  |    34        8.621669       -0.621669        3.846352        4.765442        0.009874
  |    35        8.622536       -0.622536        3.847400        4.765275        0.009862
  |    36       20.748798        1.251202        5.961615       12.501820        2.141874        0.143489
  |    37       20.741143        1.258857        5.960672       12.502038        2.134159        0.144274
  |    38        8.622516       -0.622516        3.847461        4.765190        0.009866
  |    39        8.599700       -0.599700        3.849054        4.740307        0.010339
  |    40        8.607577       -0.607577        3.845329        4.751770        0.010478
  |    41        8.583618       -0.583618        3.856964        4.716470        0.010184
  |    42       20.854162        1.145838        6.028932       12.507918        2.174274        0.143038
  |    43       20.931648        1.068352        6.048591       12.525905        2.212546        0.144606
  |    44        8.583539       -0.583539        3.856985        4.716369        0.010184
  |    45        8.324618       -0.324618        3.897780        4.414970        0.011868
  |    46        8.093471       -0.093471        3.954456        4.132039        0.006976
  |    47       21.270246        0.729754        6.402525       12.427106        2.379012        0.061603
  |    48       21.311913        0.688087        6.428530       12.435297        2.386663        0.061423
  |    49        8.646605       -0.646605        3.856103        4.776113        0.014388
  |    50        8.596391       -0.596391        3.848783        4.735173        0.012434
  |    51        8.645238       -0.645238        3.847167        4.788643        0.009428
  |    52        8.622597       -0.622597        3.847718        4.765003        0.009877
  |    53       20.747136        1.252864        5.962793       12.498643        2.142157        0.143543
  |    54       20.762697        1.237303        5.970252       12.499529        2.149057        0.143859
  |    55        8.624300       -0.624300        3.846158        4.768212        0.009930
  |    56        8.599193       -0.599193        3.850080        4.738713        0.010400
  |    57        8.621906       -0.621906        3.846290        4.765744        0.009873
  |    58        8.622420       -0.622420        3.847431        4.765124        0.009865
  |    59       20.749128        1.250872        5.961704       12.501714        2.142258        0.143452
  |    60       20.740989        1.259011        5.960642       12.502026        2.134027        0.144293
  |    61        8.622402       -0.622402        3.847459        4.765079        0.009864
  |    62        8.599918       -0.599918        3.849033        4.740550        0.010335
  |    63        8.607348       -0.607348        3.845367        4.751500        0.010482
  |    64        8.583499       -0.583499        3.856991        4.716324        0.010184
  |    65       20.854114        1.145886        6.028926       12.507944        2.174197        0.143047
  |    66       20.931721        1.068279        6.048598       12.525898        2.212640        0.144585
  |    67        8.583592       -0.583592        3.856968        4.716442        0.010183
  |    68        8.324558       -0.324558        3.897779        4.414910        0.011869
  |    69        8.093465       -0.093465        3.954454        4.132035        0.006976
  |    70       21.270246        0.729754        6.402525       12.427106        2.379012        0.061603
  |    71       21.311609        0.688391        6.427214       12.435729        2.387289        0.061377
  |    72        8.646055       -0.646055        3.856059        4.775554        0.014441
  |    73        8.596391       -0.596391        3.848783        4.735173        0.012434
  |    74        8.645238       -0.645238        3.847168        4.788643        0.009428
  |    75        8.622586       -0.622586        3.847723        4.764985        0.009878
  |    76       20.747136        1.252864        5.962793       12.498643        2.142157        0.143543
  |    77       20.749843        1.250157        5.967555       12.496691        2.141900        0.143697
  |    78        8.624673       -0.624673        3.846179        4.768570        0.009924
  |    79        8.599193       -0.599193        3.850080        4.738713        0.010400
  |    80        8.621907       -0.621907        3.846290        4.765744        0.009873
  |    81        8.622423       -0.622423        3.847421        4.765137        0.009865
  |    82       20.749128        1.250872        5.961704       12.501714        2.142258        0.143451
  |    83       20.740973        1.259027        5.960630       12.502022        2.134028        0.144294
  |    84        8.622404       -0.622404        3.847459        4.765081        0.009864
  |    85        8.599919       -0.599919        3.849033        4.740551        0.010335
  |    86        8.607349       -0.607349        3.845367        4.751500        0.010482
  |    87        8.583498       -0.583498        3.856991        4.716323        0.010184
  |    88       20.854113        1.145887        6.028926       12.507944        2.174197        0.143047
  |    89       20.931698        1.068302        6.048596       12.525902        2.212613        0.144588
  |    90        8.583586       -0.583586        3.856968        4.716435        0.010183
  |    91        8.324558       -0.324558        3.897779        4.414910        0.011869
  |    92        8.093464       -0.093464        3.954454        4.132034        0.006976
  |
  | Total     1184.000000        1.000000
 
  Writing Mulliken decomposition to disk ...

  Mulliken analysis                                       :  max(cpu_time)    wall_clock(cpu1)
  | Time for Mulliken analysis                            :         38.002              38.011
  | Total time for Mulliken analysis                      :         38.002              38.011
------------------------------------------------------------

------------------------------------------------------------------------------
  Final output of selected total energy values:

  The following output summarizes some interesting total energy values
  at the end of a run (AFTER all relaxation, molecular dynamics, etc.).

  | Total energy of the DFT / Hartree-Fock s.c.f. calculation      :        -869227.517358920 eV
  | Final zero-broadening corrected energy (caution - metals only) :        -869227.563879729 eV
  | For reference only, the value of 1 Hartree used in FHI-aims is :             27.211384500 eV
  | For reference only, the overall average (free atom contribution
  | + realspace contribution) of the electrostatic potential after
  | s.c.f. convergence is                                          :             -5.324584917 eV

  Before relying on these values, please be sure to understand exactly which
  total energy value is referred to by a given number. Different objects may
  all carry the same name 'total energy'. Definitions:

  Total energy of the DFT / Hartree-Fock s.c.f. calculation:
  | Note that this energy does not include ANY quantities calculated after the
  | s.c.f. cycle, in particular not ANY RPA, MP2, etc. many-body perturbation terms.

  Final zero-broadening corrected energy:
  | For metallic systems only, a broadening of the occupation numbers at the Fermi
  | level can be extrapolated back to zero broadening by an electron-gas inspired
  | formula. For all systems that are not real metals, this value can be
  | meaningless and should be avoided.

------------------------------------------------------------------------------
  Methods described in the following list of references were used in this FHI-aims run.
  If you publish the results, please make sure to cite these reference if they apply.
  FHI-aims is an academic code, and for our developers (often, Ph.D. students
  and postdocs), scientific credit in the community is essential.
  Thank you for helping us!

  For any use of FHI-aims, please cite:

    Volker Blum, Ralf Gehrke, Felix Hanke, Paula Havu, Ville Havu,
    Xinguo Ren, Karsten Reuter, and Matthias Scheffler
    'Ab initio molecular simulations with numeric atom-centered orbitals'
    Computer Physics Communications 180, 2175-2196 (2009)
    http://doi.org/10.1016/j.cpc.2009.06.022


  The provided symmetry information was generated with SPGlib:

    Atsushi Togo, Yusuke Seto, Dimitar Pashov
    SPGlib 1.7.3 obtained from http://spglib.sourceforge.net
    Licence: New BSD license
    Copyright (C) 2008 Atsushi Togo


  The ELSI infrastructure was used in your run to solve the Kohn-Sham electronic structure.
  Please check out https://wordpress.elsi-interchange.org to learn more.
  If scalability is important for your project, please acknowledge ELSI by citing:

    V. W-z. Yu, F. Corsetti, A. Garcia, W. P. Huhn, M. Jacquelin, W. Jia,
    B. Lange, L. Lin, J. Lu, W. Mi, A. Seifitokaldani, A. Vazquez-Mayagoitia,
    C. Yang, H. Yang, and V. Blum
    'ELSI: A unified software interface for Kohn-Sham electronic structure solvers'
    Computer Physics Communications 222, 267-285 (2018).
    http://doi.org/10.1016/j.cpc.2017.09.007


  For the real-space grid partitioning and parallelization used in this calculation, please cite:

    Ville Havu, Volker Blum, Paula Havu, and Matthias Scheffler,
    'Efficient O(N) integration for all-electron electronic structure calculation'
    'using numerically tabulated basis functions'
    Journal of Computational Physics 228, 8367-8379 (2009).
    http://doi.org/10.1016/j.jcp.2009.08.008

  Of course, there are many other important community references, e.g., those cited in the
  above references. Our list is limited to references that describe implementations in the
  FHI-aims code. The reason is purely practical (length of this list) - please credit others as well.

   One or more s.c.f. cycles took more than 50 s.c.f. iterations.
   It might be worth adjusting your convergence settings. For example,
   metals need a larger broadening and a smaller "charge_mix_param" value than semiconductors.

------------------------------------------------------------
          Leaving FHI-aims.
          Date     :  20241006, Time     :  061303.925

          Computational steps:
          | Number of self-consistency cycles          :          114
          | Number of SCF (re)initializations          :            1

          Detailed time accounting                     :  max(cpu_time)    wall_clock(cpu1)
          | Total time                                  :     3413.715 s        3414.470 s
          | Preparation time                            :        0.368 s           0.368 s
          | Boundary condition initalization            :        0.114 s           0.114 s
          | Grid partitioning                           :        1.565 s           1.565 s
          | Preloading free-atom quantities on grid     :        2.126 s           2.126 s
          | Free-atom superposition energy              :        0.278 s           0.278 s
          | Total time for integrations                 :      259.562 s         259.574 s
          | Total time for solution of K.-S. equations  :     1889.062 s        1889.293 s
          | Total time for density update               :      581.356 s         581.410 s
          | Total time for mixing & preconditioning     :      563.324 s         563.393 s
          | Total time for Hartree multipole update     :        0.996 s           0.992 s
          | Total time for Hartree multipole sum        :       76.799 s          76.809 s
          | Total time for total energy evaluation      :        0.151 s           0.160 s
          | Total time for scaled ZORA corrections      :        0.000 s           0.000 s
          | Total time for Mulliken analysis            :       38.007 s          38.011 s

          Partial memory accounting:
          | Residual value for overall tracked memory usage across tasks:     0.000000 MB (should be 0.000000 MB)
          | Peak values for overall tracked memory usage:
          |   Minimum:      300.264 MB (on task 17 after allocating eval_tmp)
          |   Maximum:      326.790 MB (on task  3 after allocating eval_tmp)
          |   Average:      303.599 MB
          | Largest tracked array allocation:
          |   Minimum:       51.212 MB (KS_eigenvector_complex on task  0)
          |   Maximum:       53.001 MB (KS_eigenvector_complex on task  1)
          |   Average:       51.436 MB
          Note:  These values currently only include a subset of arrays which are explicitly tracked.
          The "true" memory usage will be greater.

          Have a nice day.
------------------------------------------------------------
