------------------------------------------------------------
          Invoking FHI-aims ...

          When using FHI-aims, please cite the following reference:

            Volker Blum, Ralf Gehrke, Felix Hanke, Paula Havu,
            Ville Havu, Xinguo Ren, Karsten Reuter, and Matthias Scheffler,
            'Ab Initio Molecular Simulations with Numeric Atom-Centered Orbitals',
            Computer Physics Communications 180, 2175-2196 (2009)

          In addition, many other developments in FHI-aims are likely important for
          your particular application. If so, please cite them. A partial list of references
          is written at the end of this file. Thank you for giving credit to the authors
          of these developments.

          For general information about FHI-aims please find us at

            https://fhi-aims.org

          Online tutorials can be found at

            https://fhi-aims-club.gitlab.io/tutorials/tutorials-overview/

          For any questions about FHI-aims, please visit our slack channel at

            https://fhi-aims.slack.com

          and our main development and support site at

            https://aims-git.rz-berlin.mpg.de .

          The latter site, in particular, has a wiki to collect information, as well
          as an issue tracker to log discussions, suggest improvements, and report issues
          or bugs. https://aims-git.rz-berlin.mpg.de is also the main development site
          of the project and all new and updated code versions can be obtained there.
          Please send an email to aims-coordinators@fhi-berlin.mpg.de and we will add
          you to these sites. They are for you and everyone is welcome there.

------------------------------------------------------------



  Date     :  20240711, Time     :  172456.469
  Time zero on CPU 1             :   0.343504000000000E+00  s.
  Internal wall clock time zero  :           489950696.469  s.

  FHI-aims created a unique identifier for this run for later identification
  aims_uuid : 215555CE-FD2B-4180-A09C-D477F3FF6152

  Build configuration of the current instance of FHI-aims
  -------------------------------------------------------
  FHI-aims version      : 240605
  Commit number         : b001b2e18
  CMake host system     : Linux-6.5.0-41-generic
  CMake version         : 3.22.1
  Fortran compiler      : /opt/intel/oneapi/mpi/2021.12/bin/mpiifort (IntelLLVM) version 2024.1.0
  Fortran compiler flags: -fc=ifx -O3 -ip -fp-model precise
  C compiler            : /opt/intel/oneapi/mpi/2021.12/bin/mpiicc (IntelLLVM) version 2024.1.0
  C compiler flags      : -cc=icx -O3 -ip -fp-model precise -std=gnu99
  C++ compiler          : /opt/intel/oneapi/mpi/2021.12/bin/mpiicpc (IntelLLVM) version 2024.1.0
  C++ compiler flags    : -cxx=icpx -O3 -ip -fp-model precise -std=c++11
  HIP compiler          :
  HIP compiler flags    :
  HIP GPU arch          :
  Using MPI
  Using ScaLAPACK
  Using LibXC
  Using i-PI
  Using RLSY
  Linking against: /opt/intel/oneapi/mkl/2024.1/lib/intel64/libmkl_intel_lp64.so
                   /opt/intel/oneapi/mkl/2024.1/lib/intel64/libmkl_sequential.so
                   /opt/intel/oneapi/mkl/2024.1/lib/intel64/libmkl_core.so
                   /opt/intel/oneapi/mkl/2024.1/lib/intel64/libmkl_blacs_intelmpi_lp64.so
                   /opt/intel/oneapi/mkl/2024.1/lib/intel64/libmkl_scalapack_lp64.so
                   /opt/intel/oneapi/mkl/2024.1/lib/intel64/libmkl_core.so

  Using       24 parallel tasks.
  Task        0 on host RSL-arvutus reporting.
  Task        1 on host RSL-arvutus reporting.
  Task        2 on host RSL-arvutus reporting.
  Task        3 on host RSL-arvutus reporting.
  Task        4 on host RSL-arvutus reporting.
  Task        5 on host RSL-arvutus reporting.
  Task        6 on host RSL-arvutus reporting.
  Task        7 on host RSL-arvutus reporting.
  Task        8 on host RSL-arvutus reporting.
  Task        9 on host RSL-arvutus reporting.
  Task       10 on host RSL-arvutus reporting.
  Task       11 on host RSL-arvutus reporting.
  Task       12 on host RSL-arvutus reporting.
  Task       13 on host RSL-arvutus reporting.
  Task       14 on host RSL-arvutus reporting.
  Task       15 on host RSL-arvutus reporting.
  Task       16 on host RSL-arvutus reporting.
  Task       17 on host RSL-arvutus reporting.
  Task       18 on host RSL-arvutus reporting.
  Task       19 on host RSL-arvutus reporting.
  Task       20 on host RSL-arvutus reporting.
  Task       21 on host RSL-arvutus reporting.
  Task       22 on host RSL-arvutus reporting.
  Task       23 on host RSL-arvutus reporting.

  Memory overcommitment is allowed on your operating system.

  Obtaining array dimensions for all initial allocations:
  
  -----------------------------------------------------------------------
  Parsing control.in (first pass over file, find array dimensions only).
  The contents of control.in will be repeated verbatim below
  unless switched off by setting 'verbatim_writeout .false.' .
  in the first line of control.in .
  -----------------------------------------------------------------------
  
  xc              scan
  relativistic    atomic_zora scalar
  k_grid          8 8 8
  relax_geometry  bfgs 5e-3
  relax_unit_cell full
  
  ################################################################################
  #
  #  FHI-aims code project
  #  Volker Blum, Fritz Haber Institute Berlin, 2009
  #
  #  Suggested "tight" defaults for Ti atom (to be pasted into control.in file)
  #
  ################################################################################
    species        Ti
  #     global species definitions
      nucleus             22
      mass                47.867
  #
      l_hartree           6
  #
      cut_pot             4.0          2.0  1.0
      basis_dep_cutoff    1e-4
  #
      radial_base         48 7.0
      radial_multiplier   8
      angular_grids       specified
        division   0.3263   50
        division   0.7218  110
        division   1.0925  194
        division   1.3188  302
        division   1.4940  434
        division   1.6583  590
  #      division   1.8821  770
  #      division   2.0961  974
  #      division   3.3854 1202
  #      outer_grid  974
        outer_grid  590
  ################################################################################
  #
  #  Definition of "minimal" basis
  #
  ################################################################################
  #     valence basis states
      valence      4  s   2.
      valence      3  p   6.
      valence      3  d   2.
  #     ion occupancy
      ion_occ      4  s   1.
      ion_occ      3  p   6.
      ion_occ      3  d   1.
  ################################################################################
  #
  #  Suggested additional basis functions. For production calculations,
  #  uncomment them one after another (the most important basis functions are
  #  listed first).
  #
  #  Constructed for dimers: 1.6 A, 1.85 A, 2.5 A, 3.25 A, 4.25 A
  #
  ################################################################################
  #  "First tier" - improvements: -396.25 meV to -19.41 meV
       hydro 4 f 8
       hydro 3 d 2.7
       ionic 4 p auto
       hydro 5 g 11.6
       ionic 4 s auto
  #  "Second tier" - improvements: -16.30 meV to -2.03 meV
  #     hydro 3 d 4.4
  #     hydro 6 h 16
  #     hydro 4 f 9.4
  #     hydro 4 p 4.5
  #     hydro 1 s 0.5
  #  "Third tier" - improvements: -6.28 meV to -0.37 meV
  #     hydro 4 d 6.4
  #     hydro 4 f 10
  #     hydro 5 g 12
  #     hydro 2 p 1.7
  #     hydro 6 h 16.4
  #     hydro 4 s 3.8
  #  Further basis functions: -0.45 meV and smaller improvements
  #     hydro 3 d 8.8
  #     hydro 5 p 18
  #     hydro 4 f 22.4
  #     hydro 5 f 7.2  # -0.16 meV
  #     hydro 3 d 2.1  # -0.11 meV
  #     hydro 5 g 7.4  # -0.09 meV
  ################################################################################
  #
  #  FHI-aims code project
  #  Volker Blum, Fritz Haber Institute Berlin, 2009
  #
  #  Suggested "tight" defaults for O atom (to be pasted into control.in file)
  #
  ################################################################################
    species        O
  #     global species definitions
      nucleus             8
      mass                15.9994
  #
      l_hartree           6
  #
      cut_pot             4.0  2.0  1.0
      basis_dep_cutoff    1e-4
  #
      radial_base         36 7.0
      radial_multiplier   2
       angular_grids specified
        division   0.1817   50
        division   0.3417  110
        division   0.4949  194
        division   0.6251  302
        division   0.8014  434
  #      division   0.8507  590
  #      division   0.8762  770
  #      division   0.9023  974
  #      division   1.2339 1202
  #      outer_grid 974
        outer_grid  434
  ################################################################################
  #
  #  Definition of "minimal" basis
  #
  ################################################################################
  #     valence basis states
      valence      2  s   2.
      valence      2  p   4.
  #     ion occupancy
      ion_occ      2  s   1.
      ion_occ      2  p   3.
  ################################################################################
  #
  #  Suggested additional basis functions. For production calculations,
  #  uncomment them one after another (the most important basis functions are
  #  listed first).
  #
  #  Constructed for dimers: 1.0 A, 1.208 A, 1.5 A, 2.0 A, 3.0 A
  #
  ################################################################################
  #  "First tier" - improvements: -699.05 meV to -159.38 meV
       hydro 2 p 1.8
       hydro 3 d 7.6
       hydro 3 s 6.4
  #  "Second tier" - improvements: -49.91 meV to -5.39 meV
       hydro 4 f 11.6
       hydro 3 p 6.2
       hydro 3 d 5.6
       hydro 5 g 17.6
       hydro 1 s 0.75
  #  "Third tier" - improvements: -2.83 meV to -0.50 meV
  #     ionic 2 p auto
  #     hydro 4 f 10.8
  #     hydro 4 d 4.7
  #     hydro 2 s 6.8
  #  "Fourth tier" - improvements: -0.40 meV to -0.12 meV
  #     hydro 3 p 5
  #     hydro 3 s 3.3
  #     hydro 5 g 15.6
  #     hydro 4 f 17.6
  #     hydro 4 d 14
  # Further basis functions - -0.08 meV and below
  #     hydro 3 s 2.1
  #     hydro 4 d 11.6
  #     hydro 3 p 16
  #     hydro 2 s 17.2
  ################################################################################
  #
  # For methods that use the localized form of the "resolution of identity" for
  # the two-electron Coulomb operator (RI_method LVL), particularly Hartree-Fock and
  # hybrid density functional calculations, the highest accuracy can be obtained by
  # uncommenting the line beginning with "for_aux"  below, thus adding an extra g radial
  # function to the construction of the product basis set for the expansion.
  # See Ref. New J. Phys. 17, 093020 (2015) for more information, particularly Figs. 1 and 6.
  #
  ################################################################################
  #
  # for_aux hydro 5 g 6.0
  
  -----------------------------------------------------------------------
  Completed first pass over input file control.in .
  -----------------------------------------------------------------------
  
  
  -----------------------------------------------------------------------
  Parsing geometry.in (first pass over file, find array dimensions only).
  The contents of geometry.in will be repeated verbatim below
  unless switched off by setting 'verbatim_writeout .false.' .
  in the first line of geometry.in .
  -----------------------------------------------------------------------
  
  lattice_vector 4.594000 0.000000 0.000000
  lattice_vector 0.000000 4.594000 0.000000
  lattice_vector 0.000000 0.000000 2.958000
  
  atom_frac 0.000000 0.000000 0.000000 Ti
  atom_frac 0.500000 0.500000 0.500000 Ti
  atom_frac 0.305000 0.305000 0.000000 O
  atom_frac 0.695000 0.695000 0.000000 O
  atom_frac 0.305000 0.695000 0.500000 O
  atom_frac 0.695000 0.305000 0.500000 O
  
  -----------------------------------------------------------------------
  Completed first pass over input file geometry.in .
  -----------------------------------------------------------------------
  

  Basic array size parameters:
  | Number of species                 :        2
  | Number of atoms                   :        6
  | Number of lattice vectors         :        3
  | Max. basis fn. angular momentum   :        4
  | Max. atomic/ionic basis occupied n:        4
  | Max. number of basis fn. types    :        3
  | Max. radial fns per species/type  :        8
  | Max. logarithmic grid size        :     1383
  | Max. radial integration grid size :      391
  | Max. angular integration grid size:      590
  | Max. angular grid division number :        8
  | Radial grid for Hartree potential :     1383
  | Number of spin channels           :        1

------------------------------------------------------------
          Reading file control.in.
------------------------------------------------------------
  WARNING: The in-house xc SCAN implementation has been deprecated.
  WARNING: Using xc dfauto SCAN implementation instead.
  XC: Using the parameter-free meta-GGA functional SCAN.
  Scalar relativistic treatment of kinetic energy: on-site free-atom approximation to ZORA.
  Found k-point grid:         8         8         8
  Geometry relaxation: Modified BFGS - TRM (trust radius method) for lattice optimization.
  Convergence accuracy for geometry relaxation: Maximum force <   0.500000E-02 eV/A.
 
  Reading configuration options for species Ti                  .
  | Found nuclear charge :  22.0000
  | Found atomic mass :    47.8670000000000      amu
  | Found l_max for Hartree potential  :   6
  | Found cutoff potl. onset [A], width [A], scale factor :    4.00000    2.00000    1.00000
  | Threshold for basis-dependent cutoff potential is   0.100000E-03
  | Found data for basic radial integration grid :    48 points, outermost radius =    7.000 A
  | Found multiplier for basic radial grid :   8
  | Found angular grid specification: user-specified.
  | Specified grid contains     7 separate shells.
  | Check grid settings after all constraints further below.
  | Found free-atom valence shell :  4 s   2.000
  | Found free-atom valence shell :  3 p   6.000
  | Found free-atom valence shell :  3 d   2.000
  | Found free-ion valence shell :  4 s   1.000
  | Found free-ion valence shell :  3 p   6.000
  | Found free-ion valence shell :  3 d   1.000
  | Found hydrogenic basis function :  4 f   8.000
  | Found hydrogenic basis function :  3 d   2.700
  | Found ionic basis function :  4 p , default cutoff radius.
  | Found hydrogenic basis function :  5 g  11.600
  | Found ionic basis function :  4 s , default cutoff radius.
 | Encountered keyword species, ending the description of species Ti                  .
  Species Ti                  : Missing cutoff potential type.
  Defaulting to exp(1/x)/(1-x)^2 type cutoff potential.
  Species Ti: No 'logarithmic' tag. Using default grid for free atom:
  | Default logarithmic grid data [bohr] : 0.1000E-03 0.1000E+03 0.1012E+01
  | Will include ionic basis functions of  2.0-fold positive Ti                   ion.
  Species Ti: On-site basis accuracy parameter (for Gram-Schmidt orthonormalisation) not specified.
  Using default value basis_acc =  0.1000000E-03.
  Species Ti                  : Using default innermost maximum threshold i_radial=  2 for radial functions.
  Species Ti                  : Default cutoff onset for free atom density etc. : 0.40000000E+01 AA.
  Species Ti                  : Basic radial grid will be enhanced according to radial_multiplier =   8, to contain   391 grid points.
 
  Reading configuration options for species O                   .
  | Found nuclear charge :   8.0000
  | Found atomic mass :    15.9994000000000      amu
  | Found l_max for Hartree potential  :   6
  | Found cutoff potl. onset [A], width [A], scale factor :    4.00000    2.00000    1.00000
  | Threshold for basis-dependent cutoff potential is   0.100000E-03
  | Found data for basic radial integration grid :    36 points, outermost radius =    7.000 A
  | Found multiplier for basic radial grid :   2
  | Found angular grid specification: user-specified.
  | Specified grid contains     6 separate shells.
  | Check grid settings after all constraints further below.
  | Found free-atom valence shell :  2 s   2.000
  | Found free-atom valence shell :  2 p   4.000
  | Found free-ion valence shell :  2 s   1.000
  | Found free-ion valence shell :  2 p   3.000
  | Found hydrogenic basis function :  2 p   1.800
  | Found hydrogenic basis function :  3 d   7.600
  | Found hydrogenic basis function :  3 s   6.400
  | Found hydrogenic basis function :  4 f  11.600
  | Found hydrogenic basis function :  3 p   6.200
  | Found hydrogenic basis function :  3 d   5.600
  | Found hydrogenic basis function :  5 g  17.600
  | Found hydrogenic basis function :  1 s   0.750
  Species O                   : Missing cutoff potential type.
  Defaulting to exp(1/x)/(1-x)^2 type cutoff potential.
  Species O : No 'logarithmic' tag. Using default grid for free atom:
  | Default logarithmic grid data [bohr] : 0.1000E-03 0.1000E+03 0.1012E+01
  Species O : On-site basis accuracy parameter (for Gram-Schmidt orthonormalisation) not specified.
  Using default value basis_acc =  0.1000000E-03.
  Species O                   : Using default innermost maximum threshold i_radial=  2 for radial functions.
  Species O                   : Default cutoff onset for free atom density etc. : 0.40000000E+01 AA.
  Species O                   : Basic radial grid will be enhanced according to radial_multiplier =   2, to contain    73 grid points.
 
  Finished reading input file 'control.in'.
 
------------------------------------------------------------


------------------------------------------------------------
          Reading geometry description geometry.in.
------------------------------------------------------------
  | The smallest distance between any two atoms is         1.26689494 AA.
  | The first atom of this pair is atom number                      2 .
  | The second atom of this pair is atom number                     6 .
  | Wigner-Seitz cell of the first atom image           0     1     0 .
  | (The Wigner-Seitz cell of the second atom is 0 0 0  by definition.)

  Symmetry information by spglib:
  | Precision set to  0.1E-04
  | Number of Operations  : 8
  | Space group           : 65
  | International         : Cmmm
  | Schoenflies           : D2h^19
  Input structure read successfully.
  The structure contains        6 atoms,  and a total of         76.000 electrons.

  Input geometry:
  | Unit cell:
  |        4.59400000        0.00000000        0.00000000
  |        0.00000000        4.59400000        0.00000000
  |        0.00000000        0.00000000        2.95800000
  | Atomic structure:
  |       Atom                x [A]            y [A]            z [A]
  |    1: Species Ti            0.00000000        0.00000000        0.00000000
  |    2: Species Ti            2.29700000        2.29700000        1.47900000
  |    3: Species O             1.40117000        1.40117000        0.00000000
  |    4: Species O             3.19283000        3.19283000        0.00000000
  |    5: Species O             1.40117000        3.19283000        1.47900000
  |    6: Species O             3.19283000        1.40117000        1.47900000

  Lattice parameters for 3D lattice (in Angstroms) :     4.594000    4.594000    2.958000
  Angle(s) between unit vectors (in degrees)       :    90.000000   90.000000   90.000000


  Quantities derived from the lattice vectors (in Angstrom^-1):
  | Reciprocal lattice vector 1:  1.367694  0.000000  0.000000
  | Reciprocal lattice vector 2:  0.000000  1.367694  0.000000
  | Reciprocal lattice vector 3:  0.000000  0.000000  2.124133
  | Unit cell volume                               :   0.624281E+02  Angstrom^3

  Fractional coordinates:
                         L1                L2                L3
       atom_frac         0.00000000        0.00000000        0.00000000  Ti
       atom_frac         0.50000000        0.50000000        0.50000000  Ti
       atom_frac         0.30500000        0.30500000        0.00000000  O
       atom_frac         0.69500000        0.69500000        0.00000000  O
       atom_frac         0.30500000        0.69500000        0.50000000  O
       atom_frac         0.69500000        0.30500000        0.50000000  O

  Slab Identifier: This seems to be a bulk system.
 
  Finished reading input file 'geometry.in'.
 

 
  Consistency checks for stacksize environment parameter are next.
 
  | Maximum stacksize for task 0: unlimited
  | Maximum stacksize for task 1: unlimited
  | Maximum stacksize for task 2: unlimited
  | Maximum stacksize for task 3: unlimited
  | Maximum stacksize for task 4: unlimited
  | Maximum stacksize for task 5: unlimited
  | Maximum stacksize for task 6: unlimited
  | Maximum stacksize for task 7: unlimited
  | Maximum stacksize for task 8: unlimited
  | Maximum stacksize for task 9: unlimited
  | Maximum stacksize for task 10: unlimited
  | Maximum stacksize for task 11: unlimited
  | Maximum stacksize for task 12: unlimited
  | Maximum stacksize for task 13: unlimited
  | Maximum stacksize for task 14: unlimited
  | Maximum stacksize for task 15: unlimited
  | Maximum stacksize for task 16: unlimited
  | Maximum stacksize for task 17: unlimited
  | Maximum stacksize for task 18: unlimited
  | Maximum stacksize for task 19: unlimited
  | Maximum stacksize for task 20: unlimited
  | Maximum stacksize for task 21: unlimited
  | Maximum stacksize for task 22: unlimited
  | Maximum stacksize for task 23: unlimited
  | Current stacksize for task 0: unlimited
  | Current stacksize for task 1: unlimited
  | Current stacksize for task 2: unlimited
  | Current stacksize for task 3: unlimited
  | Current stacksize for task 4: unlimited
  | Current stacksize for task 5: unlimited
  | Current stacksize for task 6: unlimited
  | Current stacksize for task 7: unlimited
  | Current stacksize for task 8: unlimited
  | Current stacksize for task 9: unlimited
  | Current stacksize for task 10: unlimited
  | Current stacksize for task 11: unlimited
  | Current stacksize for task 12: unlimited
  | Current stacksize for task 13: unlimited
  | Current stacksize for task 14: unlimited
  | Current stacksize for task 15: unlimited
  | Current stacksize for task 16: unlimited
  | Current stacksize for task 17: unlimited
  | Current stacksize for task 18: unlimited
  | Current stacksize for task 19: unlimited
  | Current stacksize for task 20: unlimited
  | Current stacksize for task 21: unlimited
  | Current stacksize for task 22: unlimited
  | Current stacksize for task 23: unlimited
 
  Consistency checks for the contents of control.in are next.
 
  MPI_IN_PLACE appears to work with this MPI implementation.
  | Keeping use_mpi_in_place .true. (see manual).
  Target number of points in a grid batch is not set. Defaulting to  100
  Method for grid partitioning is not set. Defaulting to parallel hash+maxmin partitioning.
  Batch size limit is not set. Defaulting to    200
  By default, will store active basis functions for each batch.
  If in need of memory, prune_basis_once .false. can be used to disable this option.
  communication_type for Hartree potential was not specified.
  Defaulting to calc_hartree .
  Defaulting to Pulay charge density mixer.
  Pulay mixer: Number of relevant iterations not set.
  Defaulting to    8 iterations.
  Pulay mixer: Number of initial linear mixing iterations not set.
  Defaulting to    0 iterations.
  Work space size for distributed Hartree potential not set.
  Defaulting to   0.200000E+03 MB.
  Mixing parameter for charge density mixing has not been set.
  Using default: charge_mix_param =     0.0500.
  The mixing parameter will be adjusted in iteration number     2 of each s.c.f. cycle (i.e., each geometry step).
  Algorithm-dependent basis array size parameters:
  | n_max_pulay                         :        8
  Maximum number of self-consistency iterations not provided.
  Presetting  1000 iterations.
  Presetting      1001 iterations before the initial mixing cycle
  is restarted anyway using the sc_init_iter criterion / keyword.
  Presetting a factor      1.000 between actual scf density residual
  and density convergence criterion sc_accuracy_rho below which sc_init_iter
  takes no effect.
 * No s.c.f. convergence criteria (sc_accuracy_*) were provided in control.in.
 * The run will proceed with a reasonable default guess, but please check whether.
 * the s.c.f. cycles seem to take too much or too little time.
  No maximum number of relaxation steps, defaulting to     1000
  Default initial Hessian is Lindh matrix (thres = 15.00) plus  0.200000E+01 eV/A^2 times unity.
  No maximum energy tolerance for TRM/BFGS moves, defaulting to   0.150000E-02
  Maximum energy tolerance by which TRM/BFGS trajectory may increase over multiple steps:   0.300000E-02
  No harmonic length scale. Defaulting to   0.250000E-01 A.
  No trust radius initializer. Defaulting to   0.200000E+00 A.
  Unit cell relaxation: Unit cell will be relaxed fully.
  Unit cell relaxation: Analytical stress will be used.
  Analytical stress will be computed.
  Analytical stress calculation: Only the upper triangle is calculated.
                                 Final output is symmetrized.
  Analytical stress calculation: scf convergence accuracy of stress not set.
                                 Analytical stress self-consistency will not be checked explicitly.
                                 Be sure to set other criteria like sc_accuracy_rho tight enough.
  Forces evaluation will include force correction term due to incomplete self-consistency (default).
 * Notice: The s.c.f. convergence criterion sc_accuracy_rho was not provided.
 * We used to stop in this case, and ask the user to provide reasonable
 * scf convergence criteria. However, this led some users to employ criteria
 * that led to extremely long run times, e.g., for simple relaxation.
 * We now preset a default value for sc_accuracy_rho if it is not set.
 * You may still wish to check if this setting is too tight or too loose for your needs.
 * Based on n_atoms and forces and force-correction status, FHI-aims chose sc_accuracy_rho =  0.100000E-05 .
  Force calculation: scf convergence accuracy of forces not set.
  Defaulting to 'sc_accuracy_forces not_checked'.
  Handling of forces: Unphysical translation and rotation will be removed from forces.
  No accuracy limit for integral partition fn. given. Defaulting to  0.1000E-14.
  No threshold value for u(r) in integrations given. Defaulting to  0.1000E-05.
  No occupation type (smearing scheme) given. Defaulting to Gaussian broadening, width =  0.1000E-01 eV.
  The width will be adjusted in iteration number     2 of each s.c.f. cycle (i.e., each geometry step).
  No accuracy for occupation numbers given. Defaulting to  0.1000E-12.
  No threshold value for occupation numbers given. Defaulting to  0.0000E+00.
  No accuracy for fermi level given. Defaulting to  0.1000E-19.
  Maximum # of iterations to find E_F not set. Defaulting to  200.
  Preferred method for the eigenvalue solver ('KS_method') not specified in 'control.in'.
  Defaulting to serial version, LAPACK (via ELSI), since more k-points than CPUs available.
  Will not use alltoall communication since running on < 1024 CPUs.
  Threshold for basis singularities not set.
  Default threshold for basis singularities:  0.1000E-04
  partition_type (choice of integration weights) for integrals was not specified.
  | Using a version of the partition function of Stratmann and coworkers ('stratmann_sparse').
  | At each grid point, the set of atoms used to build the partition table is smoothly restricted to
  | only those atoms whose free-atom density would be non-zero at that grid point.
  Partitioning for Hartree potential was not defined. Using partition_type for integrals.
  | Adjusted default value of keyword multip_moments_threshold to:       0.10000000E-11
  | This value may affect high angular momentum components of the Hartree potential in periodic systems.
  Spin handling was not defined in control.in. Defaulting to unpolarized case.
  No q(lm)/r^(l+1) cutoff set for long-range Hartree potential.
  | Using default value of  0.100000E-09 .
  | Verify using the multipole_threshold keyword.
  Defaulting to new monopole extrapolation.
  Density update method: automatic selection selected.
  Using density matrix based charge density update.
  Using density matrix based charge density update.
  Using packed matrix style: index .
  Geometry relaxation: A file "geometry.in.next_step" is written out by default after each step.
  | This file contains the geometry of the current relaxation step as well as
  | the current Hessian matrix needed to restart the relaxation algorithm.
  | If you do not want part or all of this information, use the keywords
  | "write_restart_geometry" or "hessian_to_restart_geometry" to switch the output off.
  Defaulting to use time-reversal symmetry for k-point grid.
  Charge integration errors on the 3D integration grid will be compensated
  by explicit normalization and distribution of residual charges.
  Use the "compensate_multipole_errors" flag to change this behaviour.
  Set 'collect_eigenvectors' to be '.true.' for all serial calculations. This is mandatory.
  Set 'collect_eigenvectors' to be '.true.' for KS_method lapack_fast and serial.
  Found potential conflicts with setting 'use_local_index' for this calculation. Will not set it.
 
  Consistency checks for the contents of geometry.in are next.
 

  Range separation radius for Ewald summation (hartree_convergence_parameter):      3.02465203 bohr.
  Number of empty states per atom not set in control.in - providing a guess from actual geometry.
  | Total number of empty states used during s.c.f. cycle:       23
  If you use a very high smearing, use empty_states (per atom!) in control.in to increase this value.

  Structure-dependent array size parameters: 
  | Maximum number of distinct radial functions  :       23
  | Maximum number of basis functions            :      236
  | Number of Kohn-Sham states (occupied + empty):       61
------------------------------------------------------------
  After read_input_data [GB]:    805.36

  Performing system and environment tests:
  *** Environment variable OMP_NUM_THREADS is not set
  *** For performance reasons you might want to set it to 1
  | Checking for ScaLAPACK...
  | Testing pdtran()...
  | All pdtran() tests passed.
  After prepare_system [GB]:    805.21

------------------------------------------------------------
          Preparing all fixed parts of the calculation.
------------------------------------------------------------
  Determining machine precision:
    2.225073858507201E-308
  Setting up grids for atomic and cluster calculations.

  Creating wave function, potential, and density for free atoms.
  Runtime choices for atomic solver:
  | atomic solver xc        : PW-LDA
  | compute density gradient: 1
  | compute kinetic density : T

  Species: Ti

  List of occupied orbitals and eigenvalues:
    n    l              occ      energy [Ha]    energy [eV]
    1    0           2.0000      -179.494891     -4884.3045
    2    0           2.0000       -19.686176      -535.6881
    3    0           2.0000        -2.282180       -62.1013
    4    0           2.0000        -0.163864        -4.4590
    2    1           6.0000       -16.319592      -444.0787
    3    1           6.0000        -1.419321       -38.6217
    3    2           2.0000        -0.158535        -4.3140


  Species: O

  List of occupied orbitals and eigenvalues:
    n    l              occ      energy [Ha]    energy [eV]
    1    0           2.0000       -18.786458      -511.2055
    2    0           2.0000        -0.872894       -23.7527
    2    1           4.0000        -0.337952        -9.1962


  Adding cutoff potential to free-atom effective potential.
  Creating fixed part of basis set: Ionic, confined, hydrogenic.
 
  Ti                   ion:

  List of free ionic orbitals and eigenvalues:
    n    l      energy [Ha]    energy [eV]
    1    0      -180.346512     -4907.4783
    2    0       -20.558929      -559.4369
    3    0        -3.105104       -84.4942
    4    0        -0.707661       -19.2564
    2    1       -17.189957      -467.7625
    3    1        -2.231709       -60.7279
    3    2        -0.922254       -25.0958


  List of ionic basis orbitals and eigenvalues:
    n    l      energy [Ha]    energy [eV]    outer radius [A]
    4    1        -0.527667       -14.3585       5.449321
    4    0        -0.707634       -19.2557       5.383109

 
  Ti                   hydrogenic:
 
  List of hydrogenic basis orbitals: 
    n    l      effective z      eigenvalue [eV]  inner max. [A]     outer max. [A]     outer radius [A]   
    4    3         8.000000       -54.4226           1.059019           1.059019           4.648601
    3    2         2.700000       -10.9576           1.748166           1.748166           5.449321
    5    4        11.600000       -73.2312           1.139618           1.139618           4.536321
 
 
  O                    hydrogenic:
 
  List of hydrogenic basis orbitals: 
    n    l      effective z      eigenvalue [eV]  inner max. [A]     outer max. [A]     outer radius [A]   
    2    1         1.800000       -11.0118           1.178562           1.178562           5.432602
    3    2         7.600000       -87.3182           0.624125           0.624125           3.541477
    3    0         6.400000       -61.9209           0.061167           1.081902           4.306578
    4    3        11.600000      -114.4238           0.731631           0.731631           3.585037
    3    1         6.200000       -58.1113           0.255680           1.030270           4.306578
    3    2         5.600000       -47.4081           0.847233           0.847233           4.413171
    5    4        17.600000      -168.5799           0.749740           0.749740           3.372465
    1    0         0.750000        -7.6499           0.705284           0.705284           5.366593
 
  Creating atomic-like basis functions for current effective potential.

  Species Ti                  :

  List of atomic basis orbitals and eigenvalues:
    n    l      energy [Ha]    energy [eV]    outer radius [A]
    1    0      -179.494891     -4884.3045       0.490254
    2    0       -19.686176      -535.6881       1.491292
    3    0        -2.282180       -62.1013       4.215492
    4    0        -0.163864        -4.4590       5.449321
    2    1       -16.319592      -444.0787       1.585290
    3    1        -1.419321       -38.6217       4.822253
    3    2        -0.158535        -4.3140       5.383109


  Species O                   :

  List of atomic basis orbitals and eigenvalues:
    n    l      energy [Ha]    energy [eV]    outer radius [A]
    1    0       -18.786458      -511.2055       1.433179
    2    0        -0.872894       -23.7527       5.048385
    2    1        -0.337952        -9.1962       5.301386

  Assembling full basis from fixed parts.
  | Species Ti :   atomic orbital   1 s accepted.
  | Species Ti :   atomic orbital   2 s accepted.
  | Species Ti :   atomic orbital   3 s accepted.
  | Species Ti :    ionic orbital   4 s accepted.
  | Species Ti :   atomic orbital   4 s accepted.
  | Species Ti :   atomic orbital   2 p accepted.
  | Species Ti :   atomic orbital   3 p accepted.
  | Species Ti :    ionic orbital   4 p accepted.
  | Species Ti :   atomic orbital   3 d accepted.
  | Species Ti :    hydro orbital   3 d accepted.
  | Species Ti :    hydro orbital   4 f accepted.
  | Species Ti :    hydro orbital   5 g accepted.
  | Species O :   atomic orbital   1 s accepted.
  | Species O :    hydro orbital   3 s accepted.
  | Species O :   atomic orbital   2 s accepted.
  | Species O :    hydro orbital   1 s accepted.
  | Species O :    hydro orbital   3 p accepted.
  | Species O :   atomic orbital   2 p accepted.
  | Species O :    hydro orbital   2 p accepted.
  | Species O :    hydro orbital   3 d accepted.
  | Species O :    hydro orbital   3 d accepted.
  | Species O :    hydro orbital   4 f accepted.
  | Species O :    hydro orbital   5 g accepted.
 
  Basis size parameters after reduction:
  | Total number of radial functions:       23
  | Total number of basis functions :      236
 
  Per-task memory consumption for arrays in subroutine allocate_ext:
  |           8.149848MB.
  Testing on-site integration grid accuracy.
  |  Species  Function  <phi|h_atom|phi> (log., in eV)  <phi|h_atom|phi> (rad., in eV)
           1        1              -4884.3045041830              -4884.3045023265
           1        2               -535.6881163770               -535.6881154956
           1        3                -62.1012734904                -62.1012731637
           1        4                 -3.6444450756                 -3.6444449904
           1        5                  4.5284932272                  4.5284941385
           1        6               -444.0786921184               -444.0786917737
           1        7                -38.6216821055                -38.6216819195
           1        8                 -0.0636885234                 -0.0636884390
           1        9                 -4.3143777489                 -4.3143777097
           1       10                  5.2078361839                  5.2078364952
           1       11                 27.2784668371                 27.2784668521
           1       12                 50.9946777645                 50.9946777594
           2       13               -511.2055257460               -511.2055212647
           2       14                 14.8909316291                 14.8909245888
           2       15                -21.2761098745                -21.2761142506
           2       16                 14.4902594017                 14.4902930901
           2       17                 20.4755804255                 20.4755808251
           2       18                 -2.7025186682                 -2.7025193111
           2       19                 13.8430854879                 13.8430486164
           2       20                 45.7917095645                 45.7917095443
           2       21                 52.0376190406                 52.0376206035
           2       22                 85.3009901325                 85.3009901592
           2       23                141.9718674916                141.9718674951

  Preparing densities etc. for the partition functions (integrals / Hartree potential).

  Preparations completed.
  max(cpu_time)          :      0.295 s.
  Wall clock time (cpu1) :      0.295 s.
------------------------------------------------------------
  After prepare_scf [GB]:    804.59

  Initializing index lists of integration centers etc. from given atomic structure:
  Mapping all atomic coordinates to central unit cell.

  Initializing the k-points
  Using symmetry for reducing the k-points
  | k-points reduced from:      512 to      260
  | Number of k-points                             :       260
  The eigenvectors in the calculations are COMPLEX.
  | K-points in task   0:        10
  | K-points in task   1:        11
  | K-points in task   2:        11
  | K-points in task   3:        11
  | K-points in task   4:        11
  | K-points in task   5:        11
  | K-points in task   6:        11
  | K-points in task   7:        11
  | K-points in task   8:        11
  | K-points in task   9:        11
  | K-points in task  10:        11
  | K-points in task  11:        11
  | K-points in task  12:        11
  | K-points in task  13:        11
  | K-points in task  14:        11
  | K-points in task  15:        11
  | K-points in task  16:        11
  | K-points in task  17:        11
  | K-points in task  18:        11
  | K-points in task  19:        11
  | K-points in task  20:        11
  | K-points in task  21:        10
  | K-points in task  22:        10
  | K-points in task  23:        10
  | Number of basis functions in the Hamiltonian integrals :      6664
  | Number of basis functions in a single unit cell        :       236
  | Number of centers in hartree potential         :      1445
  | Number of centers in hartree multipole         :      1220
  | Number of centers in electron density summation:       885
  | Number of centers in basis integrals           :       965
  | Number of centers in integrals                 :       315
  | Number of centers in hamiltonian               :       907
  | Consuming        885 KiB for k_phase.
  | Number of super-cells (origin) [n_cells]                     :        1053
  | Number of super-cells (after PM_index) [n_cells]             :         218
  | Number of super-cells in hamiltonian [n_cells_in_hamiltonian]:         218
  | Size of matrix packed + index [n_hamiltonian_matrix_size] :     1378789
  After initialize_bc_dependent_lists [GB]:    804.79

------------------------------------------------------------
          Begin self-consistency loop: Initialization.

          Date     :  20240711, Time     :  172456.966
------------------------------------------------------------

  Initializing relaxation algorithms.
  Finished initialization of distributed Hessian storage.
  | Global dimension:        27
  | BLACS block size:         2
  | Number of workers:       14

  Available memory per node after initialize_hartree_non_periodic_ewald [GB]:    804.90
  | Estimated reciprocal-space cutoff momentum G_max:         3.29309518 bohr^-1 .
  | Reciprocal lattice points for long-range Hartree potential:     264
  Available memory per node after initialize_recip_hartree_potential [GB]:    804.90
  Available memory per node after initialize_scalapack [GB]:    804.90
  Available memory per node after aims_elsi_init_scf [GB]:    804.90
  Available memory per node after initialize_fixed_grids [GB]:    804.93
  Partitioning the integration grid into batches with parallel hashing+maxmin method.
  | Number of batches:     3429
  | Maximal batch size:     115
  | Minimal batch size:      52
  | Average batch size:      81.809
  | Standard deviation of batch sizes:      16.612

  Integration load balanced across    24 MPI tasks.
  Work distribution over tasks is as follows:
  Task     0 has      11717 integration points.
  Task     1 has      11673 integration points.
  Task     2 has      11723 integration points.
  Task     3 has      11727 integration points.
  Task     4 has      11645 integration points.
  Task     5 has      11677 integration points.
  Task     6 has      11677 integration points.
  Task     7 has      11721 integration points.
  Task     8 has      11722 integration points.
  Task     9 has      11732 integration points.
  Task    10 has      11713 integration points.
  Task    11 has      11725 integration points.
  Task    12 has      11644 integration points.
  Task    13 has      11635 integration points.
  Task    14 has      11668 integration points.
  Task    15 has      11735 integration points.
  Task    16 has      11663 integration points.
  Task    17 has      11640 integration points.
  Task    18 has      11674 integration points.
  Task    19 has      11667 integration points.
  Task    20 has      11728 integration points.
  Task    21 has      11650 integration points.
  Task    22 has      11717 integration points.
  Task    23 has      11651 integration points.
  Available memory per node after partition_grid [GB]:    805.11
  Initializing partition tables, free-atom densities, potentials, etc. across the integration grid (initialize_grid_storage).
  | initialize_grid_storage: Actual outermost partition radius vs. multipole_radius_free
  | (-- VB: in principle, multipole_radius_free should be larger, hence this output)
  | Species        1: Confinement radius =              6.000000000000000 AA, multipole_radius_free =              6.009195547060584 AA.
  | Species        1: outer_partition_radius set to              6.009195547060584 AA .
  | Species        2: Confinement radius =              6.000000000000000 AA, multipole_radius_free =              6.064445521808699 AA.
  | Species        2: outer_partition_radius set to              6.064445521808699 AA .
  | The sparse table of interatomic distances needs      10840.92 kbyte instead of      7449.80 kbyte of memory.
  | Using the partition_type stratmann_smoother will reduce your memory usage.
  | Net number of integration points:   280524
  | of which are non-zero points    :   182208
  | Numerical average free-atom electrostatic potential    :    -18.64798107 eV
  Available memory per node after initialize_grid_storage_p1 [GB]:    805.42
  Renormalizing the initial density to the exact electron count on the 3D integration grid.
  | Initial density: Formal number of electrons (from input files) :      76.0000000000
  | Integrated number of electrons on 3D grid     :      75.9998517119
  | Charge integration error                      :      -0.0001482881
  | Normalization factor for density and gradient :       1.0000019512
  Renormalizing the free-atom superposition density to the exact electron count on the 3D integration grid.
  | Formal number of electrons (from input files) :      76.0000000000
  | Integrated number of electrons on 3D grid     :      75.9998517119
  | Charge integration error                      :      -0.0001482881
  | Normalization factor for density and gradient :       1.0000019512
  Obtaining max. number of non-zero basis functions in each batch (get_n_compute_maxes).
  | Maximal number of non-zero basis functions:     1840 in task     0
  | Maximal number of non-zero basis functions:     1847 in task     1
  | Maximal number of non-zero basis functions:     1881 in task     2
  | Maximal number of non-zero basis functions:     1820 in task     3
  | Maximal number of non-zero basis functions:     1856 in task     4
  | Maximal number of non-zero basis functions:     1832 in task     5
  | Maximal number of non-zero basis functions:     1852 in task     6
  | Maximal number of non-zero basis functions:     1817 in task     7
  | Maximal number of non-zero basis functions:     1840 in task     8
  | Maximal number of non-zero basis functions:     1847 in task     9
  | Maximal number of non-zero basis functions:     1827 in task    10
  | Maximal number of non-zero basis functions:     1833 in task    11
  | Maximal number of non-zero basis functions:     1814 in task    12
  | Maximal number of non-zero basis functions:     1822 in task    13
  | Maximal number of non-zero basis functions:     1796 in task    14
  | Maximal number of non-zero basis functions:     1831 in task    15
  | Maximal number of non-zero basis functions:     1854 in task    16
  | Maximal number of non-zero basis functions:     1802 in task    17
  | Maximal number of non-zero basis functions:     1824 in task    18
  | Maximal number of non-zero basis functions:     1822 in task    19
  | Maximal number of non-zero basis functions:     1842 in task    20
  | Maximal number of non-zero basis functions:     1803 in task    21
  | Maximal number of non-zero basis functions:     1840 in task    22
  | Maximal number of non-zero basis functions:     1859 in task    23
  Available memory per node after get_n_compute_maxes_p1 [GB]:    805.37
  Allocating        2.197 MB for KS_eigenvector_complex
  Available memory per node after allocate_matrices [GB]:    805.32
  Available memory per node after init_comm_sparse_local_matrix_scalapack [GB]:    805.32
  Integrating Hamiltonian matrix: batch-based integration.
  Time summed over all CPUs for integration: real work      188.074 s, elapsed      280.232 s => Consider using load balancing!
  Available memory per node after integrate hamiltonian matrix [GB]:    804.03
  Integrating overlap matrix.
  Time summed over all CPUs for integration: real work      116.446 s, elapsed      185.090 s
  Available memory per node after integrate ovlp matrix [GB]:    803.68
  Available memory per node after ASI_callbacks invoke [GB]:    803.68
  Available memory per node after save_overlap_scalapack [GB]:    803.68

  Updating Kohn-Sham eigenvalues and eigenvectors using ELSI and the (modified) LAPACK eigensolver.
  Singularity check in k-point 24, task 0 (analysis for other k-points/tasks may follow below):
  Overlap matrix is not singular
  | Lowest and highest eigenvalues :  0.7400E-04,  0.1433E+02
  Finished singularity check of overlap matrix
  | Time :     0.021 s
  Starting LAPACK eigensolver
  Finished Cholesky decomposition
  | Time :     0.004 s
  Finished transformation to standard eigenproblem
  | Time :     0.008 s
  Finished solving standard eigenproblem
  | Time :     0.015 s
  Finished back-transformation of eigenvectors
  | Time :     0.001 s

  Obtaining occupation numbers and electronic chemical potential using ELSI.
  | Note that, for insulating systems, the printed 'chemical potential' value is not uniquely defined.
  | It can be anywhere in the energy gap, as long as it correctly separates occupied and unoccupied states.
  | In systems with a gap, the physically relevant chemical potential is the VBM or HOMO.

  | Chemical potential (Fermi level):    -8.02457508 eV
  Available memory per node after advance_KS_solution [GB]:    803.66
  Writing Kohn-Sham eigenvalues.
  K-point:       1 at    0.000000    0.000000    0.000000 (in units of recip. lattice)

  State    Occupation    Eigenvalue [Ha]    Eigenvalue [eV]
      1       2.00000        -179.560876        -4886.10003
      2       2.00000        -179.505172        -4884.58424
      3       2.00000         -19.758974         -537.66904
      4       2.00000         -19.697197         -535.98800
      5       2.00000         -19.071395         -518.95905
      6       2.00000         -19.071387         -518.95884
      7       2.00000         -18.918900         -514.80947
      8       2.00000         -18.918900         -514.80947
      9       2.00000         -16.396631         -446.17503
     10       2.00000         -16.388579         -445.95592
     11       2.00000         -16.388220         -445.94615
     12       2.00000         -16.330572         -444.37747
     13       2.00000         -16.330542         -444.37667
     14       2.00000         -16.330317         -444.37054
     15       2.00000          -2.483110          -67.56886
     16       2.00000          -2.303824          -62.69025
     17       2.00000          -1.878253          -51.10986
     18       2.00000          -1.551381          -42.21523
     19       2.00000          -1.547689          -42.11477
     20       2.00000          -1.455356          -39.60224
     21       2.00000          -1.440896          -39.20876
     22       2.00000          -1.437504          -39.11648
     23       2.00000          -1.164762          -31.69480
     24       2.00000          -1.083940          -29.49550
     25       2.00000          -1.027503          -27.95977
     26       2.00000          -0.936142          -25.47373
     27       2.00000          -0.743770          -20.23902
     28       2.00000          -0.712865          -19.39804
     29       2.00000          -0.704153          -19.16098
     30       2.00000          -0.613274          -16.68803
     31       2.00000          -0.573590          -15.60818
     32       2.00000          -0.572822          -15.58727
     33       2.00000          -0.564098          -15.34989
     34       2.00000          -0.497209          -13.52975
     35       2.00000          -0.496878          -13.52074
     36       2.00000          -0.488934          -13.30457
     37       2.00000          -0.485443          -13.20957
     38       2.00000          -0.297100           -8.08450
     39       0.00000          -0.282982           -7.70034
     40       0.00000          -0.254565           -6.92707
     41       0.00000          -0.199344           -5.42442
     42       0.00000          -0.181528           -4.93963
     43       0.00000          -0.176423           -4.80072
     44       0.00000          -0.171311           -4.66160
     45       0.00000          -0.104443           -2.84203
     46       0.00000          -0.099681           -2.71246
     47       0.00000          -0.088797           -2.41628
     48       0.00000          -0.073892           -2.01070
     49       0.00000           0.037296            1.01486
     50       0.00000           0.043871            1.19378
     51       0.00000           0.052121            1.41829
     52       0.00000           0.119090            3.24060
     53       0.00000           0.193273            5.25923
     54       0.00000           0.240441            6.54273
     55       0.00000           0.255354            6.94852
     56       0.00000           0.322217            8.76797
     57       0.00000           0.359951            9.79476
     58       0.00000           0.385259           10.48343
     59       0.00000           0.528489           14.38092
     60       0.00000           0.555240           15.10886
     61       0.00000           0.631691           17.18918

  What follows are estimated values for band gap, HOMO, LUMO, etc.
  | They are estimated on a discrete k-point grid and not necessarily exact.
  | For converged numbers, create a DOS and/or band structure plot on a denser k-grid.

  Highest occupied state (VBM) at     -8.08449706 eV (relative to internal zero)
  | Occupation number:      2.00000000
  | K-point:       1 at    0.000000    0.000000    0.000000 (in units of recip. lattice)

  Lowest unoccupied state (CBM) at    -7.92852060 eV (relative to internal zero)
  | Occupation number:      0.00000000
  | K-point:     202 at    0.500000    0.500000    0.000000 (in units of recip. lattice)

  ESTIMATED overall HOMO-LUMO gap:      0.15597646 eV between HOMO at k-point 1 and LUMO at k-point 202
  | This appears to be an indirect band gap.
  | Smallest direct gap :      0.21667036 eV for k_point 202 at    0.500000    0.500000    0.000000 (in units of recip. lattice)
  The gap value is rather small. This may be a metal or a small-gap semiconductor.
  Since we use a finite k-point grid, a DOS and/or band structure plot is required
  for an unambiguous assignment.
  Calculating total energy contributions from superposition of free atom densities.

  Total energy components:
  | Sum of eigenvalues            :       -1195.56984471 Ha      -32533.11074102 eV
  | XC energy correction          :        -113.14296384 Ha       -3078.77669260 eV
  | XC potential correction       :         149.53223871 Ha        4068.97924269 eV
  | Free-atom electrostatic energy:        -848.83768086 Ha      -23098.04851197 eV
  | Hartree energy correction     :           0.00000000 Ha           0.00000000 eV
  | Entropy correction            :          -0.00000000 Ha          -0.00000000 eV
  | ---------------------------
  | Total energy                  :       -2008.01825070 Ha      -54640.95670290 eV
  | Total energy, T -> 0          :       -2008.01825070 Ha      -54640.95670290 eV  <-- do not rely on this value for anything but (periodic) metals
  | Electronic free energy        :       -2008.01825070 Ha      -54640.95670290 eV

  Derived energy quantities:
  | Kinetic energy                :        2021.53893201 Ha       55008.87316074 eV
  | Electrostatic energy          :       -3916.41421887 Ha     -106571.05317105 eV
  | Energy correction for multipole
  | error in Hartree potential    :           0.00000000 Ha           0.00000000 eV
  | Sum of eigenvalues per atom                           :       -5422.18512350 eV
  | Total energy (T->0) per atom                          :       -9106.82611715 eV  <-- do not rely on this value for anything but (periodic) metals
  | Electronic free energy per atom                       :       -9106.82611715 eV
  Initialize hartree_potential_storage
  Max. number of atoms included in rho_multipole:            6

  End scf initialization - timings             :  max(cpu_time)    wall_clock(cpu1)
  | Time for scf. initialization                :       23.261 s          23.263 s
  | Boundary condition initialization           :        0.122 s           0.122 s
  | Relaxation initialization                   :        0.011 s           0.011 s
  | Integration                                 :       19.478 s          19.479 s
  | Solution of K.-S. eqns.                     :        0.766 s           0.766 s
  | Grid partitioning                           :        0.277 s           0.277 s
  | Preloading free-atom quantities on grid     :        2.561 s           2.561 s
  | Free-atom superposition energy              :        0.166 s           0.166 s
  | Total energy evaluation                     :        0.001 s           0.001 s

  Partial memory accounting:
  | Current value for overall tracked memory usage:
  |   Minimum:       28.552 MB (on task 21)
  |   Maximum:       28.772 MB (on task  1)
  |   Average:       28.735 MB
  | Peak value for overall tracked memory usage:
  |   Minimum:       67.604 MB (on task 14 after allocating wave)
  |   Maximum:       70.662 MB (on task  2 after allocating wave)
  |   Average:       68.902 MB
  | Largest tracked array allocation so far:
  |   Minimum:       24.609 MB (hamiltonian_shell on task 14)
  |   Maximum:       26.994 MB (hamiltonian_shell on task  2)
  |   Average:       25.647 MB
  Note:  These values currently only include a subset of arrays which are explicitly tracked.
  The "true" memory usage will be greater.
------------------------------------------------------------
  Available memory after initialize_scf [GB]:    803.66
  Available memory after allocating mixing [GB]:    803.66
  Evaluating new KS density using the density matrix
  Evaluating density matrix
  Time summed over all CPUs for getting density from density matrix: real work      385.539 s, elapsed      565.085 s
  Integration grid: deviation in total charge (<rho> - N_e) =   5.684342E-14

  Time for density update prior                :  max(cpu_time)    wall_clock(cpu1)
  | self-consistency iterative process          :       23.656 s          23.657 s
  Available memory before start of SCF loop [GB]:    803.50

------------------------------------------------------------
          Begin self-consistency iteration #    1

  Date     :  20240711, Time     :  172543.886
------------------------------------------------------------
  Pulay mixing of updated and previous charge densities.
  Available memory per node after mixing [GB]:    803.50
  Renormalizing the density to the exact electron count on the 3D integration grid.
  | Formal number of electrons (from input files) :      76.0000000000
  | Integrated number of electrons on 3D grid     :      76.0000000000
  | Charge integration error                      :       0.0000000000
  | Normalization factor for density and gradient :       1.0000000000

  Evaluating partitioned Hartree potential by multipole expansion.
  | Original multipole sum: apparent total charge =   0.276725E-13
  | Sum of charges compensated after spline to logarithmic grids =  -0.112049E-06
  | Analytical far-field extrapolation by fixed multipoles:
  | Hartree multipole sum: apparent total charge =   0.276325E-13
  Summing up the Hartree potential.
  Time summed over all CPUs for potential: real work        0.310 s, elapsed        0.438 s
  | RMS charge density error from multipole expansion :   0.761221E-03
  | Average real-space part of the electrostatic potential :      0.09195733 eV

  Integrating Hamiltonian matrix: batch-based integration.
  Time summed over all CPUs for integration: real work      220.414 s, elapsed      324.666 s => Consider using load balancing!

  Updating Kohn-Sham eigenvalues and eigenvectors using ELSI and the (modified) LAPACK eigensolver.
  Starting LAPACK eigensolver
  Finished Cholesky decomposition
  | Time :     0.005 s
  Finished transformation to standard eigenproblem
  | Time :     0.008 s
  Finished solving standard eigenproblem
  | Time :     0.018 s
  Finished back-transformation of eigenvectors
  | Time :     0.001 s

  Obtaining occupation numbers and electronic chemical potential using ELSI.
  | Note that, for insulating systems, the printed 'chemical potential' value is not uniquely defined.
  | It can be anywhere in the energy gap, as long as it correctly separates occupied and unoccupied states.
  | In systems with a gap, the physically relevant chemical potential is the VBM or HOMO.

  | Chemical potential (Fermi level):    -7.53808344 eV
  Writing Kohn-Sham eigenvalues.
  K-point:       1 at    0.000000    0.000000    0.000000 (in units of recip. lattice)

  State    Occupation    Eigenvalue [Ha]    Eigenvalue [eV]
      1       2.00000        -180.836051        -4920.79933
      2       2.00000        -180.805244        -4919.96101
      3       2.00000         -20.099487         -546.93487
      4       2.00000         -20.079884         -546.40145
      5       2.00000         -19.389931         -527.62688
      6       2.00000         -19.389884         -527.62559
      7       2.00000         -19.246874         -523.73410
      8       2.00000         -19.246796         -523.73196
      9       2.00000         -16.600522         -451.72318
     10       2.00000         -16.600331         -451.71799
     11       2.00000         -16.600263         -451.71615
     12       2.00000         -16.583716         -451.26587
     13       2.00000         -16.576610         -451.07252
     14       2.00000         -16.576328         -451.06483
     15       2.00000          -2.552888          -69.46762
     16       2.00000          -2.440985          -66.42259
     17       2.00000          -1.901913          -51.75368
     18       2.00000          -1.576557          -42.90030
     19       2.00000          -1.570248          -42.72862
     20       2.00000          -1.535762          -41.79022
     21       2.00000          -1.524319          -41.47884
     22       2.00000          -1.522061          -41.41738
     23       2.00000          -1.198737          -32.61931
     24       2.00000          -1.128323          -30.70324
     25       2.00000          -1.074437          -29.23692
     26       2.00000          -0.973259          -26.48372
     27       2.00000          -0.736130          -20.03111
     28       2.00000          -0.700056          -19.04950
     29       2.00000          -0.696458          -18.95158
     30       2.00000          -0.609254          -16.57865
     31       2.00000          -0.562606          -15.30928
     32       2.00000          -0.562257          -15.29980
     33       2.00000          -0.553596          -15.06411
     34       2.00000          -0.491488          -13.37406
     35       2.00000          -0.489556          -13.32151
     36       2.00000          -0.479120          -13.03753
     37       2.00000          -0.478097          -13.00969
     38       2.00000          -0.283202           -7.70632
     39       0.00000          -0.272538           -7.41614
     40       0.00000          -0.229699           -6.25042
     41       0.00000          -0.196960           -5.35954
     42       0.00000          -0.179257           -4.87784
     43       0.00000          -0.178948           -4.86941
     44       0.00000          -0.168351           -4.58107
     45       0.00000          -0.086238           -2.34664
     46       0.00000          -0.071120           -1.93528
     47       0.00000          -0.054401           -1.48033
     48       0.00000          -0.035069           -0.95427
     49       0.00000           0.064715            1.76098
     50       0.00000           0.065366            1.77871
     51       0.00000           0.083771            2.27952
     52       0.00000           0.156908            4.26968
     53       0.00000           0.226371            6.15987
     54       0.00000           0.281259            7.65345
     55       0.00000           0.302752            8.23831
     56       0.00000           0.372170           10.12727
     57       0.00000           0.401083           10.91403
     58       0.00000           0.434829           11.83229
     59       0.00000           0.584238           15.89791
     60       0.00000           0.626303           17.04257
     61       0.00000           0.705328           19.19295

  What follows are estimated values for band gap, HOMO, LUMO, etc.
  | They are estimated on a discrete k-point grid and not necessarily exact.
  | For converged numbers, create a DOS and/or band structure plot on a denser k-grid.

  Highest occupied state (VBM) at     -7.59430835 eV (relative to internal zero)
  | Occupation number:      2.00000000
  | K-point:       2 at    0.000000    0.000000    0.125000 (in units of recip. lattice)

  Lowest unoccupied state (CBM) at    -7.48912821 eV (relative to internal zero)
  | Occupation number:      0.00000000
  | K-point:     202 at    0.500000    0.500000    0.000000 (in units of recip. lattice)

  ESTIMATED overall HOMO-LUMO gap:      0.10518014 eV between HOMO at k-point 2 and LUMO at k-point 202
  | This appears to be an indirect band gap.
  | Smallest direct gap :      0.21300423 eV for k_point 206 at    0.500000    0.500000    0.875000 (in units of recip. lattice)
  The gap value is rather small. This may be a metal or a small-gap semiconductor.
  Since we use a finite k-point grid, a DOS and/or band structure plot is required
  for an unambiguous assignment.

  Total energy components:
  | Sum of eigenvalues            :       -1208.67270012 Ha      -32889.65757753 eV
  | XC energy correction          :        -119.38228075 Ha       -3248.55714389 eV
  | XC potential correction       :         163.25938881 Ha        4442.51400221 eV
  | Free-atom electrostatic energy:        -848.83768086 Ha      -23098.04851197 eV
  | Hartree energy correction     :          -0.42299945 Ha         -11.51040059 eV
  | Entropy correction            :          -0.00000000 Ha          -0.00000000 eV
  | ---------------------------
  | Total energy                  :       -2014.05627236 Ha      -54805.25963177 eV
  | Total energy, T -> 0          :       -2014.05627236 Ha      -54805.25963177 eV  <-- do not rely on this value for anything but (periodic) metals
  | Electronic free energy        :       -2014.05627236 Ha      -54805.25963177 eV

  Derived energy quantities:
  | Kinetic energy                :        2022.18899483 Ha       55026.56227006 eV
  | Electrostatic energy          :       -3916.86298644 Ha     -106583.26475795 eV
  | Energy correction for multipole
  | error in Hartree potential    :          -0.00038211 Ha          -0.01039762 eV
  | Sum of eigenvalues per atom                           :       -5481.60959626 eV
  | Total energy (T->0) per atom                          :       -9134.20993863 eV  <-- do not rely on this value for anything but (periodic) metals
  | Electronic free energy per atom                       :       -9134.20993863 eV
  Evaluating new KS density using the density matrix
  Evaluating density matrix
  Time summed over all CPUs for getting density from density matrix: real work      382.451 s, elapsed      561.240 s
  Integration grid: deviation in total charge (<rho> - N_e) =   5.684342E-14

  Self-consistency convergence accuracy:
  | Change of charge density      :  0.8308E+00
  | Change of unmixed KS density  :  0.7199E+02
  | Change of sum of eigenvalues  : -0.3565E+03 eV
  | Change of total energy        : -0.1643E+03 eV


------------------------------------------------------------
  End self-consistency iteration #     1       :  max(cpu_time)    wall_clock(cpu1)
  | Time for this iteration                     :       37.931 s          37.932 s
  | Charge density update                       :       23.438 s          23.439 s
  | Density mixing                              :        0.001 s           0.001 s
  | Hartree multipole update                    :        0.004 s           0.005 s
  | Hartree multipole summation                 :        0.447 s           0.446 s
  | Integration                                 :       13.559 s          13.560 s
  | Solution of K.-S. eqns.                     :        0.480 s           0.480 s
  | Total energy evaluation                     :        0.001 s           0.001 s

  Partial memory accounting:
  | Current value for overall tracked memory usage:
  |   Minimum:       36.641 MB (on task 21)
  |   Maximum:       36.919 MB (on task 15)
  |   Average:       36.850 MB
  | Peak value for overall tracked memory usage:
  |   Minimum:       75.705 MB (on task 14 after allocating wave)
  |   Maximum:       78.801 MB (on task  2 after allocating wave)
  |   Average:       77.017 MB
  | Largest tracked array allocation so far:
  |   Minimum:       24.609 MB (hamiltonian_shell on task 14)
  |   Maximum:       26.994 MB (hamiltonian_shell on task  2)
  |   Average:       25.647 MB
  Note:  These values currently only include a subset of arrays which are explicitly tracked.
  The "true" memory usage will be greater.
------------------------------------------------------------

------------------------------------------------------------
          Begin self-consistency iteration #    2

  Date     :  20240711, Time     :  172621.819
------------------------------------------------------------
  Pulay mixing of updated and previous charge densities.
  Available memory per node after mixing [GB]:    802.79
  Renormalizing the density to the exact electron count on the 3D integration grid.
  | Formal number of electrons (from input files) :      76.0000000000
  | Integrated number of electrons on 3D grid     :      76.0000000000
  | Charge integration error                      :       0.0000000000
  | Normalization factor for density and gradient :       1.0000000000

  Evaluating partitioned Hartree potential by multipole expansion.
  | Original multipole sum: apparent total charge =   0.152444E-12
  | Sum of charges compensated after spline to logarithmic grids =  -0.442782E-06
  | Analytical far-field extrapolation by fixed multipoles:
  | Hartree multipole sum: apparent total charge =   0.152125E-12
  Summing up the Hartree potential.
  Time summed over all CPUs for potential: real work        0.331 s, elapsed        0.516 s
  | RMS charge density error from multipole expansion :   0.213566E-02
  | Average real-space part of the electrostatic potential :      0.25232193 eV

  Integrating Hamiltonian matrix: batch-based integration.
  Time summed over all CPUs for integration: real work      224.123 s, elapsed      332.348 s => Consider using load balancing!

  Updating Kohn-Sham eigenvalues and eigenvectors using ELSI and the (modified) LAPACK eigensolver.
  Starting LAPACK eigensolver
  Finished Cholesky decomposition
  | Time :     0.005 s
  Finished transformation to standard eigenproblem
  | Time :     0.009 s
  Finished solving standard eigenproblem
  | Time :     0.018 s
  Finished back-transformation of eigenvectors
  | Time :     0.001 s

  Obtaining occupation numbers and electronic chemical potential using ELSI.
  | Note that, for insulating systems, the printed 'chemical potential' value is not uniquely defined.
  | It can be anywhere in the energy gap, as long as it correctly separates occupied and unoccupied states.
  | In systems with a gap, the physically relevant chemical potential is the VBM or HOMO.

  | Chemical potential (Fermi level):    -7.35002377 eV
  What follows are estimated values for band gap, HOMO, LUMO, etc.
  | They are estimated on a discrete k-point grid and not necessarily exact.
  | For converged numbers, create a DOS and/or band structure plot on a denser k-grid.

  Highest occupied state (VBM) at     -7.35101884 eV (relative to internal zero)
  | Occupation number:      1.11191266
  | K-point:      28 at    0.000000    0.500000    0.625000 (in units of recip. lattice)

  Lowest unoccupied state (CBM) at    -7.33327811 eV (relative to internal zero)
  | Occupation number:      0.01787519
  | K-point:     153 at    0.375000    0.375000    0.750000 (in units of recip. lattice)

  ESTIMATED overall HOMO-LUMO gap:      0.01774073 eV between HOMO at k-point 28 and LUMO at k-point 153
  | This appears to be an indirect band gap.
  | Smallest direct gap :      0.32736188 eV for k_point 181 at    0.500000    0.000000    0.375000 (in units of recip. lattice)
  However, this system has fractional occupation numbers. Since we use a finite k-point grid,
  this material is metallic within the approximate finite broadening function (occupation_type)
  applied to determine the occupation numbers.

  Checking to see if s.c.f. parameters should be adjusted.
  Adjusted the Pulay mixing parameter (charge_mix_param) for an expected low-gap system. New value:   0.020000 .
  Adjusted the occupation broadening width for an expected low-gap system. New value:      0.05000000 eV.

  Total energy components:
  | Sum of eigenvalues            :       -1207.92389649 Ha      -32869.28159412 eV
  | XC energy correction          :        -119.52377789 Ha       -3252.40747714 eV
  | XC potential correction       :         163.45046556 Ha        4447.71346513 eV
  | Free-atom electrostatic energy:        -848.83768086 Ha      -23098.04851197 eV
  | Hartree energy correction     :          -1.06796622 Ha         -29.06083940 eV
  | Entropy correction            :          -0.00002482 Ha          -0.00067546 eV
  | ---------------------------
  | Total energy                  :       -2013.90285590 Ha      -54801.08495750 eV
  | Total energy, T -> 0          :       -2013.90288072 Ha      -54801.08563296 eV  <-- do not rely on this value for anything but (periodic) metals
  | Electronic free energy        :       -2013.90290554 Ha      -54801.08630841 eV

  Derived energy quantities:
  | Kinetic energy                :        2023.53277827 Ha       55063.12847775 eV
  | Electrostatic energy          :       -3917.91185627 Ha     -106611.80595811 eV
  | Energy correction for multipole
  | error in Hartree potential    :          -0.00102407 Ha          -0.02786643 eV
  | Sum of eigenvalues per atom                           :       -5478.21359902 eV
  | Total energy (T->0) per atom                          :       -9133.51427216 eV  <-- do not rely on this value for anything but (periodic) metals
  | Electronic free energy per atom                       :       -9133.51438474 eV
  Evaluating new KS density using the density matrix
  Evaluating density matrix
