------------------------------------------------------------
          Invoking FHI-aims ...

          When using FHI-aims, please cite the following reference:

            Volker Blum, Ralf Gehrke, Felix Hanke, Paula Havu,
            Ville Havu, Xinguo Ren, Karsten Reuter, and Matthias Scheffler,
            'Ab Initio Molecular Simulations with Numeric Atom-Centered Orbitals',
            Computer Physics Communications 180, 2175-2196 (2009)

          In addition, many other developments in FHI-aims are likely important for
          your particular application. If so, please cite them. A partial list of references
          is written at the end of this file. Thank you for giving credit to the authors
          of these developments.

          For general information about FHI-aims please find us at

            https://fhi-aims.org

          Online tutorials can be found at

            https://fhi-aims-club.gitlab.io/tutorials/tutorials-overview/

          For any questions about FHI-aims, please visit our slack channel at

            https://fhi-aims.slack.com

          and our main development and support site at

            https://aims-git.rz-berlin.mpg.de .

          The latter site, in particular, has a wiki to collect information, as well
          as an issue tracker to log discussions, suggest improvements, and report issues
          or bugs. https://aims-git.rz-berlin.mpg.de is also the main development site
          of the project and all new and updated code versions can be obtained there.
          Please send an email to aims-coordinators@fhi-berlin.mpg.de and we will add
          you to these sites. They are for you and everyone is welcome there.

------------------------------------------------------------



  Date     :  20240909, Time     :  143757.669
  Time zero on CPU 1             :   0.952876000000000E+00  s.
  Internal wall clock time zero  :           495124677.669  s.

  FHI-aims created a unique identifier for this run for later identification
  aims_uuid : AB972BDF-8759-477E-A14C-5906616C28EE

  Build configuration of the current instance of FHI-aims
  -------------------------------------------------------
  FHI-aims version      : 240828
  Commit number         : 5966e9c4c
  CMake host system     : Linux-6.8.0-40-generic
  CMake version         : 3.22.1
  Fortran compiler      : /opt/intel/oneapi/mpi/2021.12/bin/mpiifort (IntelLLVM) version 2024.1.0
  Fortran compiler flags: -fc=ifx -O3 -ip -fp-model precise
  C compiler            : /opt/intel/oneapi/mpi/2021.12/bin/mpiicc (IntelLLVM) version 2024.1.0
  C compiler flags      : -cc=icx -O3 -ip -fp-model precise -std=gnu99
  C++ compiler          : /opt/intel/oneapi/mpi/2021.12/bin/mpiicpc (IntelLLVM) version 2024.1.0
  C++ compiler flags    : -cxx=icpx -O3 -ip -fp-model precise -std=c++11
  HIP compiler          :
  HIP compiler flags    :
  HIP GPU arch          :
  Using MPI
  Using ScaLAPACK
  Using LibXC
  Using i-PI
  Using RLSY
  Linking against: /opt/intel/oneapi/mkl/2024.1/lib/intel64/libmkl_intel_lp64.so
                   /opt/intel/oneapi/mkl/2024.1/lib/intel64/libmkl_sequential.so
                   /opt/intel/oneapi/mkl/2024.1/lib/intel64/libmkl_core.so
                   /opt/intel/oneapi/mkl/2024.1/lib/intel64/libmkl_blacs_intelmpi_lp64.so
                   /opt/intel/oneapi/mkl/2024.1/lib/intel64/libmkl_scalapack_lp64.so
                   /opt/intel/oneapi/mkl/2024.1/lib/intel64/libmkl_core.so

  Using      128 parallel tasks.
  Task        0 on host RSL-arvutus reporting.
  Task        1 on host RSL-arvutus reporting.
  Task        2 on host RSL-arvutus reporting.
  Task        3 on host RSL-arvutus reporting.
  Task        4 on host RSL-arvutus reporting.
  Task        5 on host RSL-arvutus reporting.
  Task        6 on host RSL-arvutus reporting.
  Task        7 on host RSL-arvutus reporting.
  Task        8 on host RSL-arvutus reporting.
  Task        9 on host RSL-arvutus reporting.
  Task       10 on host RSL-arvutus reporting.
  Task       11 on host RSL-arvutus reporting.
  Task       12 on host RSL-arvutus reporting.
  Task       13 on host RSL-arvutus reporting.
  Task       14 on host RSL-arvutus reporting.
  Task       15 on host RSL-arvutus reporting.
  Task       16 on host RSL-arvutus reporting.
  Task       17 on host RSL-arvutus reporting.
  Task       18 on host RSL-arvutus reporting.
  Task       19 on host RSL-arvutus reporting.
  Task       20 on host RSL-arvutus reporting.
  Task       21 on host RSL-arvutus reporting.
  Task       22 on host RSL-arvutus reporting.
  Task       23 on host RSL-arvutus reporting.
  Task       24 on host RSL-arvutus reporting.
  Task       25 on host RSL-arvutus reporting.
  Task       26 on host RSL-arvutus reporting.
  Task       27 on host RSL-arvutus reporting.
  Task       28 on host RSL-arvutus reporting.
  Task       29 on host RSL-arvutus reporting.
  Task       30 on host RSL-arvutus reporting.
  Task       31 on host RSL-arvutus reporting.
  Task       32 on host RSL-arvutus reporting.
  Task       33 on host RSL-arvutus reporting.
  Task       34 on host RSL-arvutus reporting.
  Task       35 on host RSL-arvutus reporting.
  Task       36 on host RSL-arvutus reporting.
  Task       37 on host RSL-arvutus reporting.
  Task       38 on host RSL-arvutus reporting.
  Task       39 on host RSL-arvutus reporting.
  Task       40 on host RSL-arvutus reporting.
  Task       41 on host RSL-arvutus reporting.
  Task       42 on host RSL-arvutus reporting.
  Task       43 on host RSL-arvutus reporting.
  Task       44 on host RSL-arvutus reporting.
  Task       45 on host RSL-arvutus reporting.
  Task       46 on host RSL-arvutus reporting.
  Task       47 on host RSL-arvutus reporting.
  Task       48 on host RSL-arvutus reporting.
  Task       49 on host RSL-arvutus reporting.
  Task       50 on host RSL-arvutus reporting.
  Task       51 on host RSL-arvutus reporting.
  Task       52 on host RSL-arvutus reporting.
  Task       53 on host RSL-arvutus reporting.
  Task       54 on host RSL-arvutus reporting.
  Task       55 on host RSL-arvutus reporting.
  Task       56 on host RSL-arvutus reporting.
  Task       57 on host RSL-arvutus reporting.
  Task       58 on host RSL-arvutus reporting.
  Task       59 on host RSL-arvutus reporting.
  Task       60 on host RSL-arvutus reporting.
  Task       61 on host RSL-arvutus reporting.
  Task       62 on host RSL-arvutus reporting.
  Task       63 on host RSL-arvutus reporting.
  Task       64 on host RSL-arvutus reporting.
  Task       65 on host RSL-arvutus reporting.
  Task       66 on host RSL-arvutus reporting.
  Task       67 on host RSL-arvutus reporting.
  Task       68 on host RSL-arvutus reporting.
  Task       69 on host RSL-arvutus reporting.
  Task       70 on host RSL-arvutus reporting.
  Task       71 on host RSL-arvutus reporting.
  Task       72 on host RSL-arvutus reporting.
  Task       73 on host RSL-arvutus reporting.
  Task       74 on host RSL-arvutus reporting.
  Task       75 on host RSL-arvutus reporting.
  Task       76 on host RSL-arvutus reporting.
  Task       77 on host RSL-arvutus reporting.
  Task       78 on host RSL-arvutus reporting.
  Task       79 on host RSL-arvutus reporting.
  Task       80 on host RSL-arvutus reporting.
  Task       81 on host RSL-arvutus reporting.
  Task       82 on host RSL-arvutus reporting.
  Task       83 on host RSL-arvutus reporting.
  Task       84 on host RSL-arvutus reporting.
  Task       85 on host RSL-arvutus reporting.
  Task       86 on host RSL-arvutus reporting.
  Task       87 on host RSL-arvutus reporting.
  Task       88 on host RSL-arvutus reporting.
  Task       89 on host RSL-arvutus reporting.
  Task       90 on host RSL-arvutus reporting.
  Task       91 on host RSL-arvutus reporting.
  Task       92 on host RSL-arvutus reporting.
  Task       93 on host RSL-arvutus reporting.
  Task       94 on host RSL-arvutus reporting.
  Task       95 on host RSL-arvutus reporting.
  Task       96 on host RSL-arvutus reporting.
  Task       97 on host RSL-arvutus reporting.
  Task       98 on host RSL-arvutus reporting.
  Task       99 on host RSL-arvutus reporting.
  Task      100 on host RSL-arvutus reporting.
  Task      101 on host RSL-arvutus reporting.
  Task      102 on host RSL-arvutus reporting.
  Task      103 on host RSL-arvutus reporting.
  Task      104 on host RSL-arvutus reporting.
  Task      105 on host RSL-arvutus reporting.
  Task      106 on host RSL-arvutus reporting.
  Task      107 on host RSL-arvutus reporting.
  Task      108 on host RSL-arvutus reporting.
  Task      109 on host RSL-arvutus reporting.
  Task      110 on host RSL-arvutus reporting.
  Task      111 on host RSL-arvutus reporting.
  Task      112 on host RSL-arvutus reporting.
  Task      113 on host RSL-arvutus reporting.
  Task      114 on host RSL-arvutus reporting.
  Task      115 on host RSL-arvutus reporting.
  Task      116 on host RSL-arvutus reporting.
  Task      117 on host RSL-arvutus reporting.
  Task      118 on host RSL-arvutus reporting.
  Task      119 on host RSL-arvutus reporting.
  Task      120 on host RSL-arvutus reporting.
  Task      121 on host RSL-arvutus reporting.
  Task      122 on host RSL-arvutus reporting.
  Task      123 on host RSL-arvutus reporting.
  Task      124 on host RSL-arvutus reporting.
  Task      125 on host RSL-arvutus reporting.
  Task      126 on host RSL-arvutus reporting.
  Task      127 on host RSL-arvutus reporting.

  Memory overcommitment is allowed on your operating system.

  Obtaining array dimensions for all initial allocations:
  
  -----------------------------------------------------------------------
  Parsing control.in (first pass over file, find array dimensions only).
  The contents of control.in will be repeated verbatim below
  unless switched off by setting 'verbatim_writeout .false.' .
  in the first line of control.in .
  -----------------------------------------------------------------------
  
    xc              pbe
    relativistic    atomic_zora scalar
    KS_method	  serial
    k_grid          4 4 6
  
    charge          1.0
  
    deltascf_projector 33 1 1.0 17 112
  
    restart_read_only   restart
  
    output          Mulliken
  
  
  ################################################################################
  #
  #  FHI-aims code project
  #  VB, Fritz-Haber Institut, 2009
  #
  #  Suggested "light" defaults for Ti atom (to be pasted into control.in file)
  #  Be sure to double-check any results obtained with these settings for post-processing,
  #  e.g., with the "tight" defaults and larger basis sets.
  #
  ################################################################################
    species        Ti
  #     global species definitions
      nucleus             22
      mass                47.867
  #
      l_hartree           4
  #
      cut_pot             3.5          1.5  1.0
      basis_dep_cutoff    1e-4
  #
      radial_base         48 5.0
      radial_multiplier   1
      angular_grids       specified
        division   0.5171   50
        division   0.9824  110
        division   1.2917  194
        division   1.4940  302
  #      division   1.6934  434
  #      division   1.8425  590
  #      division   2.1901  770
  #      division   2.2896  974
  #      division   2.8244 1202
  #      outer_grid  974
        outer_grid  302
  ################################################################################
  #
  #  Definition of "minimal" basis
  #
  ################################################################################
  #     valence basis states
      valence      4  s   2.
      valence      3  p   6.
      valence      3  d   2.
  #     ion occupancy
      ion_occ      4  s   1.
      ion_occ      3  p   6.
      ion_occ      3  d   1.
  ################################################################################
  #
  #  Suggested additional basis functions. For production calculations,
  #  uncomment them one after another (the most important basis functions are
  #  listed first).
  #
  #  Constructed for dimers: 1.6 A, 1.85 A, 2.5 A, 3.25 A, 4.25 A
  #
  ################################################################################
  #  "First tier" - improvements: -396.25 meV to -19.41 meV
       hydro 4 f 8
       hydro 3 d 2.7
       ionic 4 p auto
  #     hydro 5 g 11.6
       ionic 4 s auto
  #  "Second tier" - improvements: -16.30 meV to -2.03 meV
  #     hydro 3 d 4.4
  #     hydro 6 h 16
  #     hydro 4 f 9.4
  #     hydro 4 p 4.5
  #     hydro 1 s 0.5
  #  "Third tier" - improvements: -6.28 meV to -0.37 meV
  #     hydro 4 d 6.4
  #     hydro 4 f 10
  #     hydro 5 g 12
  #     hydro 2 p 1.7
  #     hydro 6 h 16.4
  #     hydro 4 s 3.8
  #  Further basis functions: -0.45 meV and smaller improvements
  #     hydro 3 d 8.8
  #     hydro 5 p 18
  #     hydro 4 f 22.4
  #     hydro 5 f 7.2  # -0.16 meV
  #     hydro 3 d 2.1  # -0.11 meV
  #     hydro 5 g 7.4  # -0.09 meV
  
  
  ################################################################################
  #
  #  FHI-aims code project
  #  VB, Fritz-Haber Institut, 2009
  #
  #  Suggested "light" defaults for O atom (to be pasted into control.in file)
  #  Be sure to double-check any results obtained with these settings for post-processing,
  #  e.g., with the "tight" defaults and larger basis sets.
  #
  ################################################################################
    species        O
  #     global species definitions
      nucleus             8
      mass                15.9994
  #
      l_hartree           4
  #
      cut_pot             3.5  1.5  1.0
      basis_dep_cutoff    1e-4
  #
      radial_base         36 5.0
      radial_multiplier   1
       angular_grids specified
        division   0.2659   50
        division   0.4451  110
        division   0.6052  194
        division   0.7543  302
  #      division   0.8014  434
  #      division   0.8507  590
  #      division   0.8762  770
  #      division   0.9023  974
  #      division   1.2339 1202
  #      outer_grid 974
        outer_grid 302
  ################################################################################
  #
  #  Definition of "minimal" basis
  #
  ################################################################################
  #     valence basis states
      valence      2  s   2.
      valence      2  p   4.
  #     ion occupancy
      ion_occ      2  s   1.
      ion_occ      2  p   3.
  ################################################################################
  #
  #  Suggested additional basis functions. For production calculations,
  #  uncomment them one after another (the most important basis functions are
  #  listed first).
  #
  #  Constructed for dimers: 1.0 A, 1.208 A, 1.5 A, 2.0 A, 3.0 A
  #
  ################################################################################
  #  "First tier" - improvements: -699.05 meV to -159.38 meV
       hydro 2 p 1.8
       hydro 3 d 7.6
       hydro 3 s 6.4
  #  "Second tier" - improvements: -49.91 meV to -5.39 meV
  #     hydro 4 f 11.6
  #     hydro 3 p 6.2
  #     hydro 3 d 5.6
  #     hydro 5 g 17.6
  #     hydro 1 s 0.75
  #  "Third tier" - improvements: -2.83 meV to -0.50 meV
  #     ionic 2 p auto
  #     hydro 4 f 10.8
  #     hydro 4 d 4.7
  #     hydro 2 s 6.8
  #  "Fourth tier" - improvements: -0.40 meV to -0.12 meV
  #     hydro 3 p 5
  #     hydro 3 s 3.3
  #     hydro 5 g 15.6
  #     hydro 4 f 17.6
  #     hydro 4 d 14
  # Further basis functions - -0.08 meV and below
  #     hydro 3 s 2.1
  #     hydro 4 d 11.6
  #     hydro 3 p 16
  #     hydro 2 s 17.2
  
  
  ################################################################################
  #
  #  FHI-aims code project
  #  VB, Fritz-Haber Institut, 2009
  #
  #  Suggested "light" defaults for O atom (to be pasted into control.in file)
  #  Be sure to double-check any results obtained with these settings for post-processing,
  #  e.g., with the "tight" defaults and larger basis sets.
  #
  ################################################################################
    species        O1
  #     global species definitions
      nucleus             8
      mass                15.9994
  #
      l_hartree           4
  #
      cut_pot             3.5  1.5  1.0
      basis_dep_cutoff    1e-4
  #
      radial_base         36 5.0
      radial_multiplier   1
       angular_grids specified
        division   0.2659   50
        division   0.4451  110
        division   0.6052  194
        division   0.7543  302
  #      division   0.8014  434
  #      division   0.8507  590
  #      division   0.8762  770
  #      division   0.9023  974
  #      division   1.2339 1202
  #      outer_grid 974
        outer_grid 302
  ################################################################################
  #
  #  Definition of "minimal" basis
  #
  ################################################################################
  #     valence basis states
      valence      2  s   2.
      valence      2  p   4.
  #     ion occupancy
      ion_occ      2  s   1.
      ion_occ      2  p   3.
  ################################################################################
  #
  #  Suggested additional basis functions. For production calculations,
  #  uncomment them one after another (the most important basis functions are
  #  listed first).
  #
  #  Constructed for dimers: 1.0 A, 1.208 A, 1.5 A, 2.0 A, 3.0 A
  #
  ################################################################################
  #  "First tier" - improvements: -699.05 meV to -159.38 meV
       hydro 2 p 1.8
       hydro 3 d 7.6
       hydro 3 s 6.4
  #  "Second tier" - improvements: -49.91 meV to -5.39 meV
  #     hydro 4 f 11.6
  #     hydro 3 p 6.2
  #     hydro 3 d 5.6
  #     hydro 5 g 17.6
  #     hydro 1 s 0.75
  #  "Third tier" - improvements: -2.83 meV to -0.50 meV
  #     ionic 2 p auto
  #     hydro 4 f 10.8
  #     hydro 4 d 4.7
  #     hydro 2 s 6.8
  #  "Fourth tier" - improvements: -0.40 meV to -0.12 meV
  #     hydro 3 p 5
  #     hydro 3 s 3.3
  #     hydro 5 g 15.6
  #     hydro 4 f 17.6
  #     hydro 4 d 14
  # Further basis functions - -0.08 meV and below
  #     hydro 3 s 2.1
  #     hydro 4 d 11.6
  #     hydro 3 p 16
  #     hydro 2 s 17.2
  
  -----------------------------------------------------------------------
  Completed first pass over input file control.in .
  -----------------------------------------------------------------------
  
  
  -----------------------------------------------------------------------
  Parsing geometry.in (first pass over file, find array dimensions only).
  The contents of geometry.in will be repeated verbatim below
  unless switched off by setting 'verbatim_writeout .false.' .
  in the first line of geometry.in .
  -----------------------------------------------------------------------
  
  #
  # This is the geometry file that corresponds to the current relaxation step.
  # If you do not want this file to be written, set the "write_restart_geometry" flag to .false.
  #  aims_uuid : 9BA3B050-7FA5-4173-AC7B-B01C22C4F404
  #
  lattice_vector      9.28630678      0.00002283     -0.00000001
  lattice_vector      0.00002292      9.28637558     -0.00000001
  lattice_vector     -0.00000004     -0.00000009      5.94535168
  atom_frac       0.00001042      0.00001109     -0.00006141 Ti
  atom_frac       0.25000609      0.25000588      0.25002440 Ti
  atom_frac       0.15277473      0.15278038     -0.00001470 O1
  atom_frac       0.34722235      0.34721380     -0.00001473 O
  atom_frac       0.09722691      0.40278923      0.25002243 O
  atom_frac       0.40278389      0.09721906      0.25002244 O
  atom_frac       0.00001042      0.00001109      0.49993931 Ti
  atom_frac       0.25000663      0.25000510      0.75002440 Ti
  atom_frac       0.15277470      0.15278039      0.49998928 O
  atom_frac       0.34722234      0.34721383      0.49998931 O
  atom_frac       0.09723020      0.40278554      0.75002244 O
  atom_frac       0.40277938      0.09722317      0.75002242 O
  atom_frac       0.00001086      0.50002681      0.00006322 Ti
  atom_frac       0.25001347      0.75001190      0.24997562 Ti
  atom_frac       0.15276750      0.65277937      0.00001467 O
  atom_frac       0.34722125      0.84721002      0.00001464 O
  atom_frac       0.09723729      0.90278836      0.24997758 O
  atom_frac       0.40278339      0.59722962      0.24997758 O
  atom_frac       0.00001087      0.50002681      0.50005885 Ti
  atom_frac       0.25001336      0.75001136      0.74997562 Ti
  atom_frac       0.15276750      0.65277936      0.50001078 O
  atom_frac       0.34722126      0.84721002      0.50001081 O
  atom_frac       0.09723256      0.90279194      0.74997759 O
  atom_frac       0.40278670      0.59722516      0.74997760 O
  atom_frac       0.50002657      0.00001063      0.00007883 Ti
  atom_frac       0.75001320      0.25001151      0.24997563 Ti
  atom_frac       0.65277432      0.15277314      0.00001464 O
  atom_frac       0.84721396      0.34721674      0.00001470 O
  atom_frac       0.59723558      0.40278585      0.24997759 O
  atom_frac       0.90278353      0.09723140      0.24997759 O
  atom_frac       0.50002657      0.00001063      0.50004326 Ti
  atom_frac       0.75001331      0.25001207      0.74997563 Ti
  atom_frac       0.65277431      0.15277314      0.50001083 O
  atom_frac       0.84721396      0.34721675      0.50001078 O
  atom_frac       0.59723228      0.40279032      0.74997761 O
  atom_frac       0.90278828      0.09722783      0.74997761 O
  atom_frac       0.50001506      0.50000689     -0.00005619 Ti
  atom_frac       0.75000672      0.75000519      0.25002435 Ti
  atom_frac       0.65277571      0.65277678     -0.00001476 O
  atom_frac       0.84722148      0.84721763     -0.00001475 O
  atom_frac       0.59722846      0.90278389      0.25002240 O
  atom_frac       0.90278138      0.59722504      0.25002238 O
  atom_frac       0.50001506      0.50000689      0.49993407 Ti
  atom_frac       0.75000616      0.75000596      0.75002435 Ti
  atom_frac       0.65277572      0.65277676      0.49998926 O
  atom_frac       0.84722151      0.84721763      0.49998925 O
  atom_frac       0.59723295      0.90277978      0.75002238 O
  atom_frac       0.90277807      0.59722873      0.75002239 O
  #
  # What follows is the current estimated Hessian matrix constructed by the BFGS algorithm.
  # This is NOT the true Hessian matrix of the system.
  # If you do not want this information here, switch it off using the "hessian_to_restart_geometry" keyword.
  #
  trust_radius             0.0015435619
  hessian_file
  
  -----------------------------------------------------------------------
  Completed first pass over input file geometry.in .
  -----------------------------------------------------------------------
  

  Basic array size parameters:
  | Number of species                 :        3
  | Number of atoms                   :       48
  | Number of lattice vectors         :        3
  | Max. basis fn. angular momentum   :        3
  | Max. atomic/ionic basis occupied n:        4
  | Max. number of basis fn. types    :        3
  | Max. radial fns per species/type  :        7
  | Max. logarithmic grid size        :     1383
  | Max. radial integration grid size :       48
  | Max. angular integration grid size:      302
  | Max. angular grid division number :        8
  | Radial grid for Hartree potential :     1383
  | Number of spin channels           :        1

------------------------------------------------------------
          Reading file control.in.
------------------------------------------------------------
  XC: Using PBE gradient-corrected functionals.
  Scalar relativistic treatment of kinetic energy: on-site free-atom approximation to ZORA.
  Kohn-Sham eigenvalues and eigenfunctions calculated by LAPACK via ELSI.
  Found k-point grid:         4         4         6
  Charged system requested: Charge =   0.100000E+01.
  Occupation set by ELSI
    Number of constraints:     1
    Selected constrained states:    33
    Selected spin channel:     1
    Occupations to constrain:   1.0
    Allowing overlap in occupation between KS-state    17  and KS-state  112
  Reading restart information from file restart000
  Mulliken charge analysis will be performed and summarised to the main output.
  Full Mulliken charge analysis will be written to file 'Mulliken.out'.
 
  Reading configuration options for species Ti                  .
  | Found nuclear charge :  22.0000
  | Found atomic mass :    47.8670000000000      amu
  | Found l_max for Hartree potential  :   4
  | Found cutoff potl. onset [A], width [A], scale factor :    3.50000    1.50000    1.00000
  | Threshold for basis-dependent cutoff potential is   0.100000E-03
  | Found data for basic radial integration grid :    48 points, outermost radius =    5.000 A
  | Found multiplier for basic radial grid :   1
  | Found angular grid specification: user-specified.
  | Specified grid contains     5 separate shells.
  | Check grid settings after all constraints further below.
  | Found free-atom valence shell :  4 s   2.000
  | Found free-atom valence shell :  3 p   6.000
  | Found free-atom valence shell :  3 d   2.000
  | Found free-ion valence shell :  4 s   1.000
  | Found free-ion valence shell :  3 p   6.000
  | Found free-ion valence shell :  3 d   1.000
  | Found hydrogenic basis function :  4 f   8.000
  | Found hydrogenic basis function :  3 d   2.700
  | Found ionic basis function :  4 p , default cutoff radius.
  | Found ionic basis function :  4 s , default cutoff radius.
 | Encountered keyword species, ending the description of species Ti                  .
  Species Ti                  : Missing cutoff potential type.
  Defaulting to exp(1/x)/(1-x)^2 type cutoff potential.
  Species Ti: No 'logarithmic' tag. Using default grid for free atom:
  | Default logarithmic grid data [bohr] : 0.1000E-03 0.1000E+03 0.1012E+01
  | Will include ionic basis functions of  2.0-fold positive Ti                   ion.
  Species Ti: On-site basis accuracy parameter (for Gram-Schmidt orthonormalisation) not specified.
  Using default value basis_acc =  0.1000000E-03.
  Species Ti                  : Using default innermost maximum threshold i_radial=  2 for radial functions.
  Species Ti                  : Default cutoff onset for free atom density etc. : 0.35000000E+01 AA.
  Species Ti                  : Basic radial grid will be enhanced according to radial_multiplier =   1, to contain    48 grid points.
 
  Reading configuration options for species O                   .
  | Found nuclear charge :   8.0000
  | Found atomic mass :    15.9994000000000      amu
  | Found l_max for Hartree potential  :   4
  | Found cutoff potl. onset [A], width [A], scale factor :    3.50000    1.50000    1.00000
  | Threshold for basis-dependent cutoff potential is   0.100000E-03
  | Found data for basic radial integration grid :    36 points, outermost radius =    5.000 A
  | Found multiplier for basic radial grid :   1
  | Found angular grid specification: user-specified.
  | Specified grid contains     5 separate shells.
  | Check grid settings after all constraints further below.
  | Found free-atom valence shell :  2 s   2.000
  | Found free-atom valence shell :  2 p   4.000
  | Found free-ion valence shell :  2 s   1.000
  | Found free-ion valence shell :  2 p   3.000
  | Found hydrogenic basis function :  2 p   1.800
  | Found hydrogenic basis function :  3 d   7.600
  | Found hydrogenic basis function :  3 s   6.400
 | Encountered keyword species, ending the description of species O                   .
  Species O                   : Missing cutoff potential type.
  Defaulting to exp(1/x)/(1-x)^2 type cutoff potential.
  Species O : No 'logarithmic' tag. Using default grid for free atom:
  | Default logarithmic grid data [bohr] : 0.1000E-03 0.1000E+03 0.1012E+01
  Species O : On-site basis accuracy parameter (for Gram-Schmidt orthonormalisation) not specified.
  Using default value basis_acc =  0.1000000E-03.
  Species O                   : Using default innermost maximum threshold i_radial=  2 for radial functions.
  Species O                   : Default cutoff onset for free atom density etc. : 0.35000000E+01 AA.
  Species O                   : Basic radial grid will be enhanced according to radial_multiplier =   1, to contain    36 grid points.
 
  Reading configuration options for species O1                  .
  | Found nuclear charge :   8.0000
  | Found atomic mass :    15.9994000000000      amu
  | Found l_max for Hartree potential  :   4
  | Found cutoff potl. onset [A], width [A], scale factor :    3.50000    1.50000    1.00000
  | Threshold for basis-dependent cutoff potential is   0.100000E-03
  | Found data for basic radial integration grid :    36 points, outermost radius =    5.000 A
  | Found multiplier for basic radial grid :   1
  | Found angular grid specification: user-specified.
  | Specified grid contains     5 separate shells.
  | Check grid settings after all constraints further below.
  | Found free-atom valence shell :  2 s   2.000
  | Found free-atom valence shell :  2 p   4.000
  | Found free-ion valence shell :  2 s   1.000
  | Found free-ion valence shell :  2 p   3.000
  | Found hydrogenic basis function :  2 p   1.800
  | Found hydrogenic basis function :  3 d   7.600
  | Found hydrogenic basis function :  3 s   6.400
  Species O1                  : Missing cutoff potential type.
  Defaulting to exp(1/x)/(1-x)^2 type cutoff potential.
  Species O1: No 'logarithmic' tag. Using default grid for free atom:
  | Default logarithmic grid data [bohr] : 0.1000E-03 0.1000E+03 0.1012E+01
  Species O1: On-site basis accuracy parameter (for Gram-Schmidt orthonormalisation) not specified.
  Using default value basis_acc =  0.1000000E-03.
  Species O1                  : Using default innermost maximum threshold i_radial=  2 for radial functions.
  Species O1                  : Default cutoff onset for free atom density etc. : 0.35000000E+01 AA.
  Species O1                  : Basic radial grid will be enhanced according to radial_multiplier =   1, to contain    36 grid points.
 
  Finished reading input file 'control.in'.
 
------------------------------------------------------------


------------------------------------------------------------
          Reading geometry description geometry.in.
------------------------------------------------------------
  Found keyword 'hessian_file', indicating that this is the continuation of a structure optimization.
  However, the control.in file does not request the geometry to be optimized.
  Ignoring the request for a file 'hessian.aims' to be present.
  | The smallest distance between any two atoms is         1.95910904 AA.
  | The first atom of this pair is atom number                     14 .
  | The second atom of this pair is atom number                    16 .
  | Wigner-Seitz cell of the first atom image           0     0     0 .
  | (The Wigner-Seitz cell of the second atom is 0 0 0  by definition.)

  Symmetry information by spglib:
  | Precision set to  0.1E-04
  | Number of Operations  : 1
  | Space group           : 1
  | International         : P1      /op
  | Schoenflies           : C1^1
  Input structure read successfully.
  The structure contains       48 atoms,  and a total of        607.000 electrons.

  Input geometry:
  | Unit cell:
  |        9.28630678        0.00002283       -0.00000001
  |        0.00002292        9.28637558       -0.00000001
  |       -0.00000004       -0.00000009        5.94535168
  | Atomic structure:
  |       Atom                x [A]            y [A]            z [A]
  |    1: Species Ti            0.00009676        0.00010299       -0.00036510
  |    2: Species Ti            2.32163897        2.32165418        1.48648298
  |    3: Species O1            1.41871651        1.41877948       -0.00008740
  |    4: Species O             3.22442122        3.22436568       -0.00008758
  |    5: Species O             0.90288814        3.74045427        1.48647127
  |    6: Species O             3.74037699        0.90282188        1.48647133
  |    7: Species Ti            0.00009674        0.00010294        2.97231502
  |    8: Species Ti            2.32164396        2.32164690        4.45915882
  |    9: Species O             1.41871621        1.41877953        2.97261210
  |   10: Species O             3.22442111        3.22436591        2.97261228
  |   11: Species O             0.90291867        3.74041995        4.45914717
  |   12: Species O             3.74033509        0.90286000        4.45914705
  |   13: Species Ti            0.00011231        4.64343676        0.00037586
  |   14: Species Ti            2.32171896        6.96489788        1.48619296
  |   15: Species O             1.41866083        6.06195789        0.00008721
  |   16: Species O             3.22442247        7.86751837        0.00008703
  |   17: Species O             0.90299599        8.38363398        1.48620462
  |   18: Species O             3.74038380        5.54610773        1.48620462
  |   19: Species Ti            0.00011238        4.64343671        2.97302572
  |   20: Species Ti            2.32171792        6.96489282        4.45886880
  |   21: Species O             1.41866081        6.06195775        2.97273992
  |   22: Species O             3.22442254        7.86751832        2.97274010
  |   23: Species O             0.90295204        8.38366718        4.45888051
  |   24: Species O             3.74041452        5.54606627        4.45888057
  |   25: Species Ti            4.64340013        0.00011013        0.00046867
  |   26: Species Ti            6.96485838        2.32171788        1.48619302
  |   27: Species O             6.06186610        1.41872366        0.00008703
  |   28: Species O             7.86749670        3.22440440        0.00008738
  |   29: Species O             5.54612204        3.74043429        1.48620467
  |   30: Species O             8.38352703        0.90294789        1.48620467
  |   31: Species Ti            4.64340011        0.00011008        2.97293303
  |   32: Species Ti            6.96485939        2.32172304        4.45886886
  |   33: Species O             6.06186598        1.41872361        2.97274022
  |   34: Species O             7.86749668        3.22440445        2.97273992
  |   35: Species O             5.54609137        3.74047576        4.45888063
  |   36: Species O             8.38357112        0.90291469        4.45888063
  |   37: Species Ti            4.64330470        4.64326319       -0.00033408
  |   38: Species Ti            6.96480967        6.96484698        1.48648267
  |   39: Species O             6.06189046        6.06194525       -0.00008777
  |   40: Species O             7.86757799        7.86760045       -0.00008771
  |   41: Species O             5.54606738        8.38360388        1.48647108
  |   42: Species O             8.38351853        5.54607662        1.48647096
  |   43: Species Ti            4.64330468        4.64326314        2.97228385
  |   44: Species Ti            6.96480445        6.96485409        4.45915851
  |   45: Species O             6.06189054        6.06194502        2.97261197
  |   46: Species O             7.86757825        7.86760041        2.97261191
  |   47: Species O             5.54610905        8.38356567        4.45914680
  |   48: Species O             8.38348777        5.54611084        4.45914686

  Lattice parameters for 3D lattice (in Angstroms) :     9.286307    9.286376    5.945352
  Angle(s) between unit vectors (in degrees)       :    90.000001   90.000000   89.999718


  Quantities derived from the lattice vectors (in Angstrom^-1):
  | Reciprocal lattice vector 1:  0.676608 -0.000002  0.000000
  | Reciprocal lattice vector 2: -0.000002  0.676603  0.000000
  | Reciprocal lattice vector 3:  0.000000  0.000000  1.056823
  | Unit cell volume                               :   0.512704E+03  Angstrom^3

  Fractional coordinates:
                         L1                L2                L3
       atom_frac         0.00001042        0.00001109       -0.00006141  Ti
       atom_frac         0.25000609        0.25000588        0.25002440  Ti
       atom_frac         0.15277473        0.15278038       -0.00001470  O1
       atom_frac         0.34722235        0.34721380       -0.00001473  O
       atom_frac         0.09722691        0.40278923        0.25002243  O
       atom_frac         0.40278389        0.09721906        0.25002244  O
       atom_frac         0.00001042        0.00001109        0.49993931  Ti
       atom_frac         0.25000663        0.25000510        0.75002440  Ti
       atom_frac         0.15277470        0.15278039        0.49998928  O
       atom_frac         0.34722234        0.34721383        0.49998931  O
       atom_frac         0.09723020        0.40278554        0.75002244  O
       atom_frac         0.40277938        0.09722317        0.75002242  O
       atom_frac         0.00001086        0.50002681        0.00006322  Ti
       atom_frac         0.25001347        0.75001190        0.24997562  Ti
       atom_frac         0.15276750        0.65277937        0.00001467  O
       atom_frac         0.34722125        0.84721002        0.00001464  O
       atom_frac         0.09723729        0.90278836        0.24997758  O
       atom_frac         0.40278339        0.59722962        0.24997758  O
       atom_frac         0.00001087        0.50002681        0.50005885  Ti
       atom_frac         0.25001336        0.75001136        0.74997562  Ti
       atom_frac         0.15276750        0.65277936        0.50001078  O
       atom_frac         0.34722126        0.84721002        0.50001081  O
       atom_frac         0.09723256        0.90279194        0.74997759  O
       atom_frac         0.40278670        0.59722516        0.74997760  O
       atom_frac         0.50002657        0.00001063        0.00007883  Ti
       atom_frac         0.75001320        0.25001151        0.24997563  Ti
       atom_frac         0.65277432        0.15277314        0.00001464  O
       atom_frac         0.84721396        0.34721674        0.00001470  O
       atom_frac         0.59723558        0.40278585        0.24997759  O
       atom_frac         0.90278353        0.09723140        0.24997759  O
       atom_frac         0.50002657        0.00001063        0.50004326  Ti
       atom_frac         0.75001331        0.25001207        0.74997563  Ti
       atom_frac         0.65277431        0.15277314        0.50001083  O
       atom_frac         0.84721396        0.34721675        0.50001078  O
       atom_frac         0.59723228        0.40279032        0.74997761  O
       atom_frac         0.90278828        0.09722783        0.74997761  O
       atom_frac         0.50001506        0.50000689       -0.00005619  Ti
       atom_frac         0.75000672        0.75000519        0.25002435  Ti
       atom_frac         0.65277571        0.65277678       -0.00001476  O
       atom_frac         0.84722148        0.84721763       -0.00001475  O
       atom_frac         0.59722846        0.90278389        0.25002240  O
       atom_frac         0.90278138        0.59722504        0.25002238  O
       atom_frac         0.50001506        0.50000689        0.49993407  Ti
       atom_frac         0.75000616        0.75000596        0.75002435  Ti
       atom_frac         0.65277572        0.65277676        0.49998926  O
       atom_frac         0.84722151        0.84721763        0.49998925  O
       atom_frac         0.59723295        0.90277978        0.75002238  O
       atom_frac         0.90277807        0.59722873        0.75002239  O

  Slab Identifier: This seems to be a bulk system.
 
  Finished reading input file 'geometry.in'.
 

 
  Consistency checks for stacksize environment parameter are next.
 
  | Maximum stacksize for task 0: unlimited
  | Maximum stacksize for task 1: unlimited
  | Maximum stacksize for task 2: unlimited
  | Maximum stacksize for task 3: unlimited
  | Maximum stacksize for task 4: unlimited
  | Maximum stacksize for task 5: unlimited
  | Maximum stacksize for task 6: unlimited
  | Maximum stacksize for task 7: unlimited
  | Maximum stacksize for task 8: unlimited
  | Maximum stacksize for task 9: unlimited
  | Maximum stacksize for task 10: unlimited
  | Maximum stacksize for task 11: unlimited
  | Maximum stacksize for task 12: unlimited
  | Maximum stacksize for task 13: unlimited
  | Maximum stacksize for task 14: unlimited
  | Maximum stacksize for task 15: unlimited
  | Maximum stacksize for task 16: unlimited
  | Maximum stacksize for task 17: unlimited
  | Maximum stacksize for task 18: unlimited
  | Maximum stacksize for task 19: unlimited
  | Maximum stacksize for task 20: unlimited
  | Maximum stacksize for task 21: unlimited
  | Maximum stacksize for task 22: unlimited
  | Maximum stacksize for task 23: unlimited
  | Maximum stacksize for task 24: unlimited
  | Maximum stacksize for task 25: unlimited
  | Maximum stacksize for task 26: unlimited
  | Maximum stacksize for task 27: unlimited
  | Maximum stacksize for task 28: unlimited
  | Maximum stacksize for task 29: unlimited
  | Maximum stacksize for task 30: unlimited
  | Maximum stacksize for task 31: unlimited
  | Maximum stacksize for task 32: unlimited
  | Maximum stacksize for task 33: unlimited
  | Maximum stacksize for task 34: unlimited
  | Maximum stacksize for task 35: unlimited
  | Maximum stacksize for task 36: unlimited
  | Maximum stacksize for task 37: unlimited
  | Maximum stacksize for task 38: unlimited
  | Maximum stacksize for task 39: unlimited
  | Maximum stacksize for task 40: unlimited
  | Maximum stacksize for task 41: unlimited
  | Maximum stacksize for task 42: unlimited
  | Maximum stacksize for task 43: unlimited
  | Maximum stacksize for task 44: unlimited
  | Maximum stacksize for task 45: unlimited
  | Maximum stacksize for task 46: unlimited
  | Maximum stacksize for task 47: unlimited
  | Maximum stacksize for task 48: unlimited
  | Maximum stacksize for task 49: unlimited
  | Maximum stacksize for task 50: unlimited
  | Maximum stacksize for task 51: unlimited
  | Maximum stacksize for task 52: unlimited
  | Maximum stacksize for task 53: unlimited
  | Maximum stacksize for task 54: unlimited
  | Maximum stacksize for task 55: unlimited
  | Maximum stacksize for task 56: unlimited
  | Maximum stacksize for task 57: unlimited
  | Maximum stacksize for task 58: unlimited
  | Maximum stacksize for task 59: unlimited
  | Maximum stacksize for task 60: unlimited
  | Maximum stacksize for task 61: unlimited
  | Maximum stacksize for task 62: unlimited
  | Maximum stacksize for task 63: unlimited
  | Maximum stacksize for task 64: unlimited
  | Maximum stacksize for task 65: unlimited
  | Maximum stacksize for task 66: unlimited
  | Maximum stacksize for task 67: unlimited
  | Maximum stacksize for task 68: unlimited
  | Maximum stacksize for task 69: unlimited
  | Maximum stacksize for task 70: unlimited
  | Maximum stacksize for task 71: unlimited
  | Maximum stacksize for task 72: unlimited
  | Maximum stacksize for task 73: unlimited
  | Maximum stacksize for task 74: unlimited
  | Maximum stacksize for task 75: unlimited
  | Maximum stacksize for task 76: unlimited
  | Maximum stacksize for task 77: unlimited
  | Maximum stacksize for task 78: unlimited
  | Maximum stacksize for task 79: unlimited
  | Maximum stacksize for task 80: unlimited
  | Maximum stacksize for task 81: unlimited
  | Maximum stacksize for task 82: unlimited
  | Maximum stacksize for task 83: unlimited
  | Maximum stacksize for task 84: unlimited
  | Maximum stacksize for task 85: unlimited
  | Maximum stacksize for task 86: unlimited
  | Maximum stacksize for task 87: unlimited
  | Maximum stacksize for task 88: unlimited
  | Maximum stacksize for task 89: unlimited
  | Maximum stacksize for task 90: unlimited
  | Maximum stacksize for task 91: unlimited
  | Maximum stacksize for task 92: unlimited
  | Maximum stacksize for task 93: unlimited
  | Maximum stacksize for task 94: unlimited
  | Maximum stacksize for task 95: unlimited
  | Maximum stacksize for task 96: unlimited
  | Maximum stacksize for task 97: unlimited
  | Maximum stacksize for task 98: unlimited
  | Maximum stacksize for task 99: unlimited
  | Maximum stacksize for task 100: unlimited
  | Maximum stacksize for task 101: unlimited
  | Maximum stacksize for task 102: unlimited
  | Maximum stacksize for task 103: unlimited
  | Maximum stacksize for task 104: unlimited
  | Maximum stacksize for task 105: unlimited
  | Maximum stacksize for task 106: unlimited
  | Maximum stacksize for task 107: unlimited
  | Maximum stacksize for task 108: unlimited
  | Maximum stacksize for task 109: unlimited
  | Maximum stacksize for task 110: unlimited
  | Maximum stacksize for task 111: unlimited
  | Maximum stacksize for task 112: unlimited
  | Maximum stacksize for task 113: unlimited
  | Maximum stacksize for task 114: unlimited
  | Maximum stacksize for task 115: unlimited
  | Maximum stacksize for task 116: unlimited
  | Maximum stacksize for task 117: unlimited
  | Maximum stacksize for task 118: unlimited
  | Maximum stacksize for task 119: unlimited
  | Maximum stacksize for task 120: unlimited
  | Maximum stacksize for task 121: unlimited
  | Maximum stacksize for task 122: unlimited
  | Maximum stacksize for task 123: unlimited
  | Maximum stacksize for task 124: unlimited
  | Maximum stacksize for task 125: unlimited
  | Maximum stacksize for task 126: unlimited
  | Maximum stacksize for task 127: unlimited
  | Current stacksize for task 0: unlimited
  | Current stacksize for task 1: unlimited
  | Current stacksize for task 2: unlimited
  | Current stacksize for task 3: unlimited
  | Current stacksize for task 4: unlimited
  | Current stacksize for task 5: unlimited
  | Current stacksize for task 6: unlimited
  | Current stacksize for task 7: unlimited
  | Current stacksize for task 8: unlimited
  | Current stacksize for task 9: unlimited
  | Current stacksize for task 10: unlimited
  | Current stacksize for task 11: unlimited
  | Current stacksize for task 12: unlimited
  | Current stacksize for task 13: unlimited
  | Current stacksize for task 14: unlimited
  | Current stacksize for task 15: unlimited
  | Current stacksize for task 16: unlimited
  | Current stacksize for task 17: unlimited
  | Current stacksize for task 18: unlimited
  | Current stacksize for task 19: unlimited
  | Current stacksize for task 20: unlimited
  | Current stacksize for task 21: unlimited
  | Current stacksize for task 22: unlimited
  | Current stacksize for task 23: unlimited
  | Current stacksize for task 24: unlimited
  | Current stacksize for task 25: unlimited
  | Current stacksize for task 26: unlimited
  | Current stacksize for task 27: unlimited
  | Current stacksize for task 28: unlimited
  | Current stacksize for task 29: unlimited
  | Current stacksize for task 30: unlimited
  | Current stacksize for task 31: unlimited
  | Current stacksize for task 32: unlimited
  | Current stacksize for task 33: unlimited
  | Current stacksize for task 34: unlimited
  | Current stacksize for task 35: unlimited
  | Current stacksize for task 36: unlimited
  | Current stacksize for task 37: unlimited
  | Current stacksize for task 38: unlimited
  | Current stacksize for task 39: unlimited
  | Current stacksize for task 40: unlimited
  | Current stacksize for task 41: unlimited
  | Current stacksize for task 42: unlimited
  | Current stacksize for task 43: unlimited
  | Current stacksize for task 44: unlimited
  | Current stacksize for task 45: unlimited
  | Current stacksize for task 46: unlimited
  | Current stacksize for task 47: unlimited
  | Current stacksize for task 48: unlimited
  | Current stacksize for task 49: unlimited
  | Current stacksize for task 50: unlimited
  | Current stacksize for task 51: unlimited
  | Current stacksize for task 52: unlimited
  | Current stacksize for task 53: unlimited
  | Current stacksize for task 54: unlimited
  | Current stacksize for task 55: unlimited
  | Current stacksize for task 56: unlimited
  | Current stacksize for task 57: unlimited
  | Current stacksize for task 58: unlimited
  | Current stacksize for task 59: unlimited
  | Current stacksize for task 60: unlimited
  | Current stacksize for task 61: unlimited
  | Current stacksize for task 62: unlimited
  | Current stacksize for task 63: unlimited
  | Current stacksize for task 64: unlimited
  | Current stacksize for task 65: unlimited
  | Current stacksize for task 66: unlimited
  | Current stacksize for task 67: unlimited
  | Current stacksize for task 68: unlimited
  | Current stacksize for task 69: unlimited
  | Current stacksize for task 70: unlimited
  | Current stacksize for task 71: unlimited
  | Current stacksize for task 72: unlimited
  | Current stacksize for task 73: unlimited
  | Current stacksize for task 74: unlimited
  | Current stacksize for task 75: unlimited
  | Current stacksize for task 76: unlimited
  | Current stacksize for task 77: unlimited
  | Current stacksize for task 78: unlimited
  | Current stacksize for task 79: unlimited
  | Current stacksize for task 80: unlimited
  | Current stacksize for task 81: unlimited
  | Current stacksize for task 82: unlimited
  | Current stacksize for task 83: unlimited
  | Current stacksize for task 84: unlimited
  | Current stacksize for task 85: unlimited
  | Current stacksize for task 86: unlimited
  | Current stacksize for task 87: unlimited
  | Current stacksize for task 88: unlimited
  | Current stacksize for task 89: unlimited
  | Current stacksize for task 90: unlimited
  | Current stacksize for task 91: unlimited
  | Current stacksize for task 92: unlimited
  | Current stacksize for task 93: unlimited
  | Current stacksize for task 94: unlimited
  | Current stacksize for task 95: unlimited
  | Current stacksize for task 96: unlimited
  | Current stacksize for task 97: unlimited
  | Current stacksize for task 98: unlimited
  | Current stacksize for task 99: unlimited
  | Current stacksize for task 100: unlimited
  | Current stacksize for task 101: unlimited
  | Current stacksize for task 102: unlimited
  | Current stacksize for task 103: unlimited
  | Current stacksize for task 104: unlimited
  | Current stacksize for task 105: unlimited
  | Current stacksize for task 106: unlimited
  | Current stacksize for task 107: unlimited
  | Current stacksize for task 108: unlimited
  | Current stacksize for task 109: unlimited
  | Current stacksize for task 110: unlimited
  | Current stacksize for task 111: unlimited
  | Current stacksize for task 112: unlimited
  | Current stacksize for task 113: unlimited
  | Current stacksize for task 114: unlimited
  | Current stacksize for task 115: unlimited
  | Current stacksize for task 116: unlimited
  | Current stacksize for task 117: unlimited
  | Current stacksize for task 118: unlimited
  | Current stacksize for task 119: unlimited
  | Current stacksize for task 120: unlimited
  | Current stacksize for task 121: unlimited
  | Current stacksize for task 122: unlimited
  | Current stacksize for task 123: unlimited
  | Current stacksize for task 124: unlimited
  | Current stacksize for task 125: unlimited
  | Current stacksize for task 126: unlimited
  | Current stacksize for task 127: unlimited
 
  Consistency checks for the contents of control.in are next.
 
  MPI_IN_PLACE appears to work with this MPI implementation.
  | Keeping use_mpi_in_place .true. (see manual).
  Target number of points in a grid batch is not set. Defaulting to  100
  Method for grid partitioning is not set. Defaulting to parallel hash+maxmin partitioning.
  Batch size limit is not set. Defaulting to    200
  By default, will store active basis functions for each batch.
  If in need of memory, prune_basis_once .false. can be used to disable this option.
  communication_type for Hartree potential was not specified.
  Defaulting to calc_hartree .
  Defaulting to Pulay charge density mixer.
  Pulay mixer: Number of relevant iterations not set.
  Defaulting to    8 iterations.
  Pulay mixer: Number of initial linear mixing iterations not set.
  Defaulting to    0 iterations.
  Work space size for distributed Hartree potential not set.
  Defaulting to   0.200000E+03 MB.
  Mixing parameter for charge density mixing has not been set.
  Using default: charge_mix_param =     0.0500.
  The mixing parameter will be adjusted in iteration number     2 of each s.c.f. cycle (i.e., each geometry step).
  Algorithm-dependent basis array size parameters:
  | n_max_pulay                         :        8
  Maximum number of self-consistency iterations not provided.
  Presetting  1000 iterations.
  Presetting      1001 iterations before the initial mixing cycle
  is restarted anyway using the sc_init_iter criterion / keyword.
  Presetting a factor      1.000 between actual scf density residual
  and density convergence criterion sc_accuracy_rho below which sc_init_iter
  takes no effect.
 * No s.c.f. convergence criteria (sc_accuracy_*) were provided in control.in.
 * The run will proceed with a reasonable default guess, but please check whether.
 * the s.c.f. cycles seem to take too much or too little time.
  Calculation of forces was not defined in control.in. No forces will be calculated.
  Geometry relaxation not requested: no relaxation will be performed.
 * Notice: The s.c.f. convergence criterion sc_accuracy_rho was not provided.
 * We used to stop in this case, and ask the user to provide reasonable
 * scf convergence criteria. However, this led some users to employ criteria
 * that led to extremely long run times, e.g., for simple relaxation.
 * We now preset a default value for sc_accuracy_rho if it is not set.
 * You may still wish to check if this setting is too tight or too loose for your needs.
 * Based on n_atoms and forces and force-correction status, FHI-aims chose sc_accuracy_rho =  0.282843E-05 .
  No accuracy limit for integral partition fn. given. Defaulting to  0.1000E-14.
  No threshold value for u(r) in integrations given. Defaulting to  0.1000E-05.
  No occupation type (smearing scheme) given. Defaulting to Gaussian broadening, width =  0.1000E-01 eV.
  The width will be adjusted in iteration number     2 of each s.c.f. cycle (i.e., each geometry step).
  No accuracy for occupation numbers given. Defaulting to  0.1000E-12.
  No threshold value for occupation numbers given. Defaulting to  0.0000E+00.
  No accuracy for fermi level given. Defaulting to  0.1000E-19.
  Maximum # of iterations to find E_F not set. Defaulting to  200.
  Will not use alltoall communication since running on < 1024 CPUs.
  Threshold for basis singularities not set.
  Default threshold for basis singularities:  0.1000E-04
  partition_type (choice of integration weights) for integrals was not specified.
  | Using a version of the partition function of Stratmann and coworkers ('stratmann_sparse').
  | At each grid point, the set of atoms used to build the partition table is smoothly restricted to
  | only those atoms whose free-atom density would be non-zero at that grid point.
  Partitioning for Hartree potential was not defined. Using partition_type for integrals.
  | Adjusted default value of keyword multip_moments_threshold to:       0.10000000E-11
  | This value may affect high angular momentum components of the Hartree potential in periodic systems.
  Spin handling was not defined in control.in. Defaulting to unpolarized case.
  No q(lm)/r^(l+1) cutoff set for long-range Hartree potential.
  | Using default value of  0.100000E-09 .
  | Verify using the multipole_threshold keyword.
  Defaulting to new monopole extrapolation.
  Density update method: automatic selection selected.
  Using density matrix based charge density update.
  Using density matrix based charge density update.
  Using packed matrix style: index .
  Defaulting to use time-reversal symmetry for k-point grid.
  Charge integration errors on the 3D integration grid will be compensated
  by explicit normalization and distribution of residual charges.
  Use the "compensate_multipole_errors" flag to change this behaviour.
  Set 'collect_eigenvectors' to be '.true.' for all serial calculations. This is mandatory.
  Set 'collect_eigenvectors' to be '.true.' for KS_method lapack_fast and serial.
  Found potential conflicts with setting 'use_local_index' for this calculation. Will not set it.
 
  Consistency checks for the contents of geometry.in are next.
 

  Range separation radius for Ewald summation (hartree_convergence_parameter):      3.05694433 bohr.
 * Warning: Initial charge and total charge of the system are inconsistent.
 * Selected charge in control.in:     1.0000* Sum of initial charges in geometry.in:     0.0000
  Number of empty states per atom not set in control.in - providing a guess from actual geometry.
  | Total number of empty states used during s.c.f. cycle:      184
  If you use a very high smearing, use empty_states (per atom!) in control.in to increase this value.

  Structure-dependent array size parameters: 
  | Maximum number of distinct radial functions  :       23
  | Maximum number of basis functions            :      944
  | Number of Kohn-Sham states (occupied + empty):      488
------------------------------------------------------------

  Checking k-grid inconsistencies now:
  | Checks passed.
  After read_input_data [GB]:   1040.72

  Performing system and environment tests:
  *** Environment variable OMP_NUM_THREADS is not set
  *** For performance reasons you might want to set it to 1
  | Checking for ScaLAPACK...
  | Testing pdtran()...
  | All pdtran() tests passed.
  After prepare_system [GB]:   1040.50

------------------------------------------------------------
          Preparing all fixed parts of the calculation.
------------------------------------------------------------
  Determining machine precision:
    2.225073858507201E-308
  Setting up grids for atomic and cluster calculations.

  Creating wave function, potential, and density for free atoms.
  Runtime choices for atomic solver:
  | atomic solver xc        : PBE
  | compute density gradient: 1
  | compute kinetic density : F

  Species: Ti

  List of occupied orbitals and eigenvalues:
    n    l              occ      energy [Ha]    energy [eV]
    1    0           2.0000      -179.959082     -4896.9358
    2    0           2.0000       -19.727662      -536.8170
    3    0           2.0000        -2.283029       -62.1244
    4    0           2.0000        -0.148384        -4.0377
    2    1           6.0000       -16.317278      -444.0157
    3    1           6.0000        -1.409348       -38.3503
    3    2           2.0000        -0.139340        -3.7916


  Species: O

  List of occupied orbitals and eigenvalues:
    n    l              occ      energy [Ha]    energy [eV]
    1    0           2.0000       -18.926989      -515.0296
    2    0           2.0000        -0.880247       -23.9527
    2    1           4.0000        -0.331514        -9.0210


  Species: O1

  List of occupied orbitals and eigenvalues:
    n    l              occ      energy [Ha]    energy [eV]
    1    0           2.0000       -18.926989      -515.0296
    2    0           2.0000        -0.880247       -23.9527
    2    1           4.0000        -0.331514        -9.0210


  Adding cutoff potential to free-atom effective potential.
  Creating fixed part of basis set: Ionic, confined, hydrogenic.
 
  Ti                   ion:

  List of free ionic orbitals and eigenvalues:
    n    l      energy [Ha]    energy [eV]
    1    0      -180.819616     -4920.3521
    2    0       -20.608761      -560.7929
    3    0        -3.115729       -84.7833
    4    0        -0.697188       -18.9715
    2    1       -17.196209      -467.9327
    3    1        -2.231296       -60.7167
    3    2        -0.911363       -24.7995


  List of ionic basis orbitals and eigenvalues:
    n    l      energy [Ha]    energy [eV]    outer radius [A]
    4    1        -0.517739       -14.0884       4.592117
    4    0        -0.696824       -18.9615       4.536321

 
  Ti                   hydrogenic:
 
  List of hydrogenic basis orbitals: 
    n    l      effective z      eigenvalue [eV]  inner max. [A]     outer max. [A]     outer radius [A]   
    4    3         8.000000       -54.4222           1.059019           1.059019           4.267343
    3    2         2.700000       -10.7798           1.726925           1.726925           4.592117
 
 
  O                    hydrogenic:
 
  List of hydrogenic basis orbitals: 
    n    l      effective z      eigenvalue [eV]  inner max. [A]     outer max. [A]     outer radius [A]   
    2    1         1.800000       -10.9749           1.164242           1.164242           4.578029
    3    2         7.600000       -87.3180           0.624125           0.624125           3.251020
    3    0         6.400000       -61.9207           0.061167           1.081902           4.001998
 
 
  O1                   hydrogenic:
 
  List of hydrogenic basis orbitals: 
    n    l      effective z      eigenvalue [eV]  inner max. [A]     outer max. [A]     outer radius [A]   
    2    1         1.800000       -10.9749           1.164242           1.164242           4.578029
    3    2         7.600000       -87.3180           0.624125           0.624125           3.251020
    3    0         6.400000       -61.9207           0.061167           1.081902           4.001998
 
  Creating atomic-like basis functions for current effective potential.

  Species Ti                  :

  List of atomic basis orbitals and eigenvalues:
    n    l      energy [Ha]    energy [eV]    outer radius [A]
    1    0      -179.959082     -4896.9358       0.490254
    2    0       -19.727662      -536.8170       1.491292
    3    0        -2.283029       -62.1244       4.014314
    4    0        -0.148384        -4.0377       4.592117
    2    1       -16.317278      -444.0157       1.585290
    3    1        -1.409348       -38.3503       4.267343
    3    2        -0.139340        -3.7916       4.536321


  Species O                   :

  List of atomic basis orbitals and eigenvalues:
    n    l      energy [Ha]    energy [eV]    outer radius [A]
    1    0       -18.926989      -515.0296       1.415765
    2    0        -0.880247       -23.9527       4.413171
    2    1        -0.331514        -9.0210       4.522403


  Species O1                  :

  List of atomic basis orbitals and eigenvalues:
    n    l      energy [Ha]    energy [eV]    outer radius [A]
    1    0       -18.926989      -515.0296       1.415765
    2    0        -0.880247       -23.9527       4.413171
    2    1        -0.331514        -9.0210       4.522403

  Assembling full basis from fixed parts.
  | Species Ti :   atomic orbital   1 s accepted.
  | Species Ti :   atomic orbital   2 s accepted.
  | Species Ti :   atomic orbital   3 s accepted.
  | Species Ti :    ionic orbital   4 s accepted.
  | Species Ti :   atomic orbital   4 s accepted.
  | Species Ti :   atomic orbital   2 p accepted.
  | Species Ti :   atomic orbital   3 p accepted.
  | Species Ti :    ionic orbital   4 p accepted.
  | Species Ti :   atomic orbital   3 d accepted.
  | Species Ti :    hydro orbital   3 d accepted.
  | Species Ti :    hydro orbital   4 f accepted.
  | Species O :   atomic orbital   1 s accepted.
  | Species O :    hydro orbital   3 s accepted.
  | Species O :   atomic orbital   2 s accepted.
  | Species O :   atomic orbital   2 p accepted.
  | Species O :    hydro orbital   2 p accepted.
  | Species O :    hydro orbital   3 d accepted.
  | Species O1 :   atomic orbital   1 s accepted.
  | Species O1 :    hydro orbital   3 s accepted.
  | Species O1 :   atomic orbital   2 s accepted.
  | Species O1 :   atomic orbital   2 p accepted.
  | Species O1 :    hydro orbital   2 p accepted.
  | Species O1 :    hydro orbital   3 d accepted.
 
  Basis size parameters after reduction:
  | Total number of radial functions:       23
  | Total number of basis functions :      944
 
  Per-task memory consumption for arrays in subroutine allocate_ext:
  |           8.168328MB.
  Testing on-site integration grid accuracy.
  |  Species  Function  <phi|h_atom|phi> (log., in eV)  <phi|h_atom|phi> (rad., in eV)
           1        1              -4896.9357674450              -4896.9322830202
           1        2               -536.8170048508               -536.8169722333
           1        3                -62.1243896260                -62.1243889283
           1        4                 -3.2653235630                 -3.2692838808
           1        5                  6.7987747276                  6.5460721883 ***
           1        6               -444.0157161949               -444.0157165810
           1        7                -38.3503235548                -38.3503234963
           1        8                  0.2923930877                  0.2745948116
           1        9                 -3.7933400649                 -3.7959244177
           1       10                  6.3288803616                  6.2510614929 ***
           1       11                 27.8451455747                 27.8452636416
           2       12               -515.0295626295               -515.0294562738
           2       13                 15.1698434419                 15.1699322204
           2       14                -21.6038822678                -21.6039118105
           2       15                 -9.0211123393                 -9.0212703513
           2       16                  8.3047696391                  8.2854840999
           2       17                 45.8428042125                 45.8427461222
           3       18               -515.0295626295               -515.0294562738
           3       19                 15.1698434419                 15.1699322204
           3       20                -21.6038822678                -21.6039118105
           3       21                 -9.0211123393                 -9.0212703513
           3       22                  8.3047696391                  8.2854840999
           3       23                 45.8428042125                 45.8427461222
 * Note: Onsite integrals marked "***" above are less accurate than
 * onsite_accuracy_threshold =    0.03000 eV. Usually, this is harmless.
 * When in doubt, tighten the "radial" and/or "radial_multiplier" flags to check.

  Preparing densities etc. for the partition functions (integrals / Hartree potential).

  Preparations completed.
  max(cpu_time)          :      0.395 s.
  Wall clock time (cpu1) :      0.394 s.
------------------------------------------------------------
  After prepare_scf [GB]:   1033.39

  Initializing index lists of integration centers etc. from given atomic structure:
  Mapping all atomic coordinates to central unit cell.

  Initializing the k-points
  Using symmetry for reducing the k-points
  | k-points reduced from:       96 to       52
  | Number of k-points                             :        52
  The eigenvectors in the calculations are COMPLEX.
  | K-points in task   0:         0
  | K-points in task   1:         1
  | K-points in task   2:         1
  | K-points in task   3:         1
  | K-points in task   4:         1
  | K-points in task   5:         1
  | K-points in task   6:         1
  | K-points in task   7:         1
  | K-points in task   8:         1
  | K-points in task   9:         1
  | K-points in task  10:         1
  | K-points in task  11:         1
  | K-points in task  12:         1
  | K-points in task  13:         1
  | K-points in task  14:         1
  | K-points in task  15:         1
  | K-points in task  16:         1
  | K-points in task  17:         1
  | K-points in task  18:         1
  | K-points in task  19:         1
  | K-points in task  20:         1
  | K-points in task  21:         1
  | K-points in task  22:         1
  | K-points in task  23:         1
  | K-points in task  24:         1
  | K-points in task  25:         1
  | K-points in task  26:         1
  | K-points in task  27:         1
  | K-points in task  28:         1
  | K-points in task  29:         1
  | K-points in task  30:         1
  | K-points in task  31:         1
  | K-points in task  32:         1
  | K-points in task  33:         1
  | K-points in task  34:         1
  | K-points in task  35:         1
  | K-points in task  36:         1
  | K-points in task  37:         1
  | K-points in task  38:         1
  | K-points in task  39:         1
  | K-points in task  40:         1
  | K-points in task  41:         1
  | K-points in task  42:         1
  | K-points in task  43:         1
  | K-points in task  44:         1
  | K-points in task  45:         1
  | K-points in task  46:         1
  | K-points in task  47:         1
  | K-points in task  48:         1
  | K-points in task  49:         1
  | K-points in task  50:         1
  | K-points in task  51:         1
  | K-points in task  52:         1
  | K-points in task  53:         0
  | K-points in task  54:         0
  | K-points in task  55:         0
  | K-points in task  56:         0
  | K-points in task  57:         0
  | K-points in task  58:         0
  | K-points in task  59:         0
  | K-points in task  60:         0
  | K-points in task  61:         0
  | K-points in task  62:         0
  | K-points in task  63:         0
  | K-points in task  64:         0
  | K-points in task  65:         0
  | K-points in task  66:         0
  | K-points in task  67:         0
  | K-points in task  68:         0
  | K-points in task  69:         0
  | K-points in task  70:         0
  | K-points in task  71:         0
  | K-points in task  72:         0
  | K-points in task  73:         0
  | K-points in task  74:         0
  | K-points in task  75:         0
  | K-points in task  76:         0
  | K-points in task  77:         0
  | K-points in task  78:         0
  | K-points in task  79:         0
  | K-points in task  80:         0
  | K-points in task  81:         0
  | K-points in task  82:         0
  | K-points in task  83:         0
  | K-points in task  84:         0
  | K-points in task  85:         0
  | K-points in task  86:         0
  | K-points in task  87:         0
  | K-points in task  88:         0
  | K-points in task  89:         0
  | K-points in task  90:         0
  | K-points in task  91:         0
  | K-points in task  92:         0
  | K-points in task  93:         0
  | K-points in task  94:         0
  | K-points in task  95:         0
  | K-points in task  96:         0
  | K-points in task  97:         0
  | K-points in task  98:         0
  | K-points in task  99:         0
  | K-points in task 100:         0
  | K-points in task 101:         0
  | K-points in task 102:         0
  | K-points in task 103:         0
  | K-points in task 104:         0
  | K-points in task 105:         0
  | K-points in task 106:         0
  | K-points in task 107:         0
  | K-points in task 108:         0
  | K-points in task 109:         0
  | K-points in task 110:         0
  | K-points in task 111:         0
  | K-points in task 112:         0
  | K-points in task 113:         0
  | K-points in task 114:         0
  | K-points in task 115:         0
  | K-points in task 116:         0
  | K-points in task 117:         0
  | K-points in task 118:         0
  | K-points in task 119:         0
  | K-points in task 120:         0
  | K-points in task 121:         0
  | K-points in task 122:         0
  | K-points in task 123:         0
  | K-points in task 124:         0
  | K-points in task 125:         0
  | K-points in task 126:         0
  | K-points in task 127:         0
  | Number of basis functions in the Hamiltonian integrals :      7297
  | Number of basis functions in a single unit cell        :       944
  | Number of centers in hartree potential         :      2123
  | Number of centers in hartree multipole         :      1437
  | Number of centers in electron density summation:      1109
  | Number of centers in basis integrals           :      1188
  | Number of centers in integrals                 :       481
  | Number of centers in hamiltonian               :      1109
  | Consuming         37 KiB for k_phase.
  | Number of super-cells (origin) [n_cells]                     :         175
  | Number of super-cells (after PM_index) [n_cells]             :          46
  | Number of super-cells in hamiltonian [n_cells_in_hamiltonian]:          46
  | Size of matrix packed + index [n_hamiltonian_matrix_size] :     2120993
  After initialize_bc_dependent_lists [GB]:   1033.33

------------------------------------------------------------
          Begin self-consistency loop: Initialization.

          Date     :  20240909, Time     :  143758.267
------------------------------------------------------------
  Available memory per node after initialize_hartree_non_periodic_ewald [GB]:   1033.33
  | Estimated reciprocal-space cutoff momentum G_max:         3.08892848 bohr^-1 .
  | Reciprocal lattice points for long-range Hartree potential:    1722
  Available memory per node after initialize_recip_hartree_potential [GB]:   1033.33
  Available memory per node after initialize_scalapack [GB]:   1033.33
  Available memory per node after aims_elsi_init_scf [GB]:   1033.33
  Available memory per node after initialize_fixed_grids [GB]:   1033.33
  Partitioning the integration grid into batches with parallel hashing+maxmin method.
  | Number of batches:     4084
  | Maximal batch size:     119
  | Minimal batch size:      56
  | Average batch size:      75.079
  | Standard deviation of batch sizes:      12.191

  Integration load balanced across   128 MPI tasks.
  Work distribution over tasks is as follows:
  Task     0 has       2411 integration points.
  Task     1 has       2383 integration points.
  Task     2 has       2379 integration points.
  Task     3 has       2427 integration points.
  Task     4 has       2360 integration points.
  Task     5 has       2382 integration points.
  Task     6 has       2415 integration points.
  Task     7 has       2362 integration points.
  Task     8 has       2376 integration points.
  Task     9 has       2360 integration points.
  Task    10 has       2362 integration points.
  Task    11 has       2384 integration points.
  Task    12 has       2381 integration points.
  Task    13 has       2364 integration points.
  Task    14 has       2423 integration points.
  Task    15 has       2425 integration points.
  Task    16 has       2408 integration points.
  Task    17 has       2381 integration points.
  Task    18 has       2430 integration points.
  Task    19 has       2410 integration points.
  Task    20 has       2381 integration points.
  Task    21 has       2378 integration points.
  Task    22 has       2404 integration points.
  Task    23 has       2413 integration points.
  Task    24 has       2403 integration points.
  Task    25 has       2380 integration points.
  Task    26 has       2409 integration points.
  Task    27 has       2411 integration points.
  Task    28 has       2383 integration points.
  Task    29 has       2384 integration points.
  Task    30 has       2367 integration points.
  Task    31 has       2429 integration points.
  Task    32 has       2365 integration points.
  Task    33 has       2381 integration points.
  Task    34 has       2361 integration points.
  Task    35 has       2380 integration points.
  Task    36 has       2432 integration points.
  Task    37 has       2408 integration points.
  Task    38 has       2422 integration points.
  Task    39 has       2360 integration points.
  Task    40 has       2361 integration points.
  Task    41 has       2379 integration points.
  Task    42 has       2434 integration points.
  Task    43 has       2428 integration points.
  Task    44 has       2411 integration points.
  Task    45 has       2406 integration points.
  Task    46 has       2432 integration points.
  Task    47 has       2409 integration points.
  Task    48 has       2363 integration points.
  Task    49 has       2383 integration points.
  Task    50 has       2362 integration points.
  Task    51 has       2427 integration points.
  Task    52 has       2429 integration points.
  Task    53 has       2379 integration points.
  Task    54 has       2406 integration points.
  Task    55 has       2385 integration points.
  Task    56 has       2425 integration points.
  Task    57 has       2406 integration points.
  Task    58 has       2404 integration points.
  Task    59 has       2379 integration points.
  Task    60 has       2365 integration points.
  Task    61 has       2437 integration points.
  Task    62 has       2404 integration points.
  Task    63 has       2435 integration points.
  Task    64 has       2409 integration points.
  Task    65 has       2381 integration points.
  Task    66 has       2382 integration points.
  Task    67 has       2363 integration points.
  Task    68 has       2419 integration points.
  Task    69 has       2378 integration points.
  Task    70 has       2370 integration points.
  Task    71 has       2426 integration points.
  Task    72 has       2358 integration points.
  Task    73 has       2411 integration points.
  Task    74 has       2361 integration points.
  Task    75 has       2421 integration points.
  Task    76 has       2380 integration points.
  Task    77 has       2359 integration points.
  Task    78 has       2407 integration points.
  Task    79 has       2432 integration points.
  Task    80 has       2430 integration points.
  Task    81 has       2430 integration points.
  Task    82 has       2425 integration points.
  Task    83 has       2430 integration points.
  Task    84 has       2365 integration points.
  Task    85 has       2427 integration points.
  Task    86 has       2413 integration points.
  Task    87 has       2429 integration points.
  Task    88 has       2406 integration points.
  Task    89 has       2434 integration points.
  Task    90 has       2382 integration points.
  Task    91 has       2364 integration points.
  Task    92 has       2380 integration points.
  Task    93 has       2378 integration points.
  Task    94 has       2432 integration points.
  Task    95 has       2381 integration points.
  Task    96 has       2361 integration points.
  Task    97 has       2399 integration points.
  Task    98 has       2379 integration points.
  Task    99 has       2402 integration points.
  Task   100 has       2364 integration points.
  Task   101 has       2407 integration points.
  Task   102 has       2405 integration points.
  Task   103 has       2422 integration points.
  Task   104 has       2358 integration points.
  Task   105 has       2381 integration points.
  Task   106 has       2429 integration points.
  Task   107 has       2384 integration points.
  Task   108 has       2381 integration points.
  Task   109 has       2411 integration points.
  Task   110 has       2431 integration points.
  Task   111 has       2430 integration points.
  Task   112 has       2408 integration points.
  Task   113 has       2405 integration points.
  Task   114 has       2410 integration points.
  Task   115 has       2359 integration points.
  Task   116 has       2382 integration points.
  Task   117 has       2379 integration points.
  Task   118 has       2361 integration points.
  Task   119 has       2359 integration points.
  Task   120 has       2406 integration points.
  Task   121 has       2431 integration points.
  Task   122 has       2362 integration points.
  Task   123 has       2407 integration points.
[...]
    432       0.00000           0.330519            8.99389
    433       0.00000           0.332179            9.03906
    434       0.00000           0.333747            9.08171
    435       0.00000           0.335250            9.12262
    436       0.00000           0.336346            9.15244
    437       0.00000           0.339300            9.23283
    438       0.00000           0.341093            9.28161
    439       0.00000           0.345249            9.39471
    440       0.00000           0.353616            9.62238
    441       0.00000           0.353709            9.62492
    442       0.00000           0.358927            9.76689
    443       0.00000           0.359877            9.79276
    444       0.00000           0.362161            9.85491
    445       0.00000           0.363246            9.88443
    446       0.00000           0.366541            9.97408
    447       0.00000           0.366760            9.98004
    448       0.00000           0.370362           10.07807
    449       0.00000           0.371090           10.09786
    450       0.00000           0.373146           10.15382
    451       0.00000           0.373611           10.16646
    452       0.00000           0.373716           10.16932
    453       0.00000           0.374696           10.19601
    454       0.00000           0.375297           10.21234
    455       0.00000           0.379387           10.32366
    456       0.00000           0.396386           10.78622
    457       0.00000           0.398085           10.83245
    458       0.00000           0.434574           11.82535
    459       0.00000           0.436031           11.86501
    460       0.00000           0.437078           11.89351
    461       0.00000           0.437197           11.89673
    462       0.00000           0.449433           12.22971
    463       0.00000           0.453139           12.33054
    464       0.00000           0.465603           12.66969
    465       0.00000           0.465855           12.67655
    466       0.00000           0.467519           12.72184
    467       0.00000           0.468708           12.75420
    468       0.00000           0.469683           12.78072
    469       0.00000           0.469709           12.78144
    470       0.00000           0.470736           12.80937
    471       0.00000           0.510777           13.89894
    472       0.00000           0.515913           14.03871
    473       0.00000           0.516792           14.06262
    474       0.00000           0.517678           14.08675
    475       0.00000           0.528751           14.38804
    476       0.00000           0.528786           14.38899
    477       0.00000           0.529353           14.40443
    478       0.00000           0.537666           14.63062
    479       0.00000           0.547964           14.91086
    480       0.00000           0.549642           14.95651
    481       0.00000           0.550000           14.96625
    482       0.00000           0.551336           15.00262
    483       0.00000           0.599981           16.32632
    484       0.00000           0.628469           17.10151
    485       0.00000           0.628823           17.11113
    486       0.00000           0.642947           17.49547
    487       0.00000           0.644472           17.53699
    488       0.00000           0.646124           17.58193

  What follows are estimated values for band gap, HOMO, LUMO, etc.
  | They are estimated on a discrete k-point grid and not necessarily exact.
  | For converged numbers, create a DOS and/or band structure plot on a denser k-grid.

  Highest occupied state (VBM) at     -8.67836067 eV (relative to internal zero)
  | Occupation number:      2.00000000
  | K-point:       1 at    0.000000    0.000000    0.000000 (in units of recip. lattice)

  Lowest unoccupied state (CBM) at  -540.97914980 eV (relative to internal zero)
  | Occupation number:      1.00000000
  | K-point:       1 at    0.000000    0.000000    0.000000 (in units of recip. lattice)

  This system has fractional occupation numbers. Since we use a finite k-point grid,
  this material is metallic within the approximate finite broadening function (occupation_type)
  applied to determine the occupation numbers. We conclude: there is no gap in this system.
  ESTIMATED overall HOMO-LUMO gap:      0.00000000 eV.

  | Chemical Potential                          :    -8.45458720 eV
  | Note that, for insulating systems, the printed 'chemical potential' value is not uniquely defined.
  | It can be anywhere in the energy gap, as long as it correctly separates occupied and unoccupied states.
  | In systems with a gap, the physically relevant chemical potential is the VBM or HOMO.

  Self-consistency cycle converged.


------------------------------------------------------------
  End self-consistency iteration #    40       :  max(cpu_time)    wall_clock(cpu1)
  | Time for this iteration                     :        1.616 s           1.616 s
  | Charge density update                       :        0.000 s           0.000 s
  | Density mixing                              :        0.010 s           0.009 s
  | Hartree multipole update                    :        0.005 s           0.005 s
  | Hartree multipole summation                 :        0.084 s           0.085 s
  | Integration                                 :        0.327 s           0.327 s
  | Solution of K.-S. eqns.                     :        1.186 s           1.186 s
  | Total energy evaluation                     :        0.001 s           0.001 s

  Partial memory accounting:
  | Current value for overall tracked memory usage:
  |   Minimum:       41.834 MB (on task  72)
  |   Maximum:       48.905 MB (on task  42)
  |   Average:       44.710 MB
  | Peak value for overall tracked memory usage:
  |   Minimum:       55.431 MB (on task  72 after allocating kdm)
  |   Maximum:      103.318 MB (on task  42 after allocating eval_tmp)
  |   Average:       74.889 MB
  | Largest tracked array allocation so far:
  |   Minimum:       16.182 MB (overlap_matrix on task   0)
  |   Maximum:       16.182 MB (overlap_matrix on task   0)
  |   Average:       16.182 MB
  Note:  These values currently only include a subset of arrays which are explicitly tracked.
  The "true" memory usage will be greater.
------------------------------------------------------------

  Energy and forces in a compact form:
  | Total energy uncorrected      :         -0.437899600968373E+06 eV
  | Total energy corrected        :         -0.437899600968373E+06 eV  <-- do not rely on this value for anything but (periodic) metals
  | Electronic free energy        :         -0.437899600968373E+06 eV

  ------------------------------------ 
  Start decomposition of the XC Energy 
  ------------------------------------ 
  X and C from original XC functional choice 
  Hartree-Fock Energy :          0.000000000 Ha              0.000000000 eV
  X Energy            :       -922.760362782 Ha         -25109.587033012 eV
  C Energy            :        -24.043950181 Ha           -654.269173261 eV
  XC Energy w/o HF    :       -946.804312962 Ha         -25763.856206272 eV
  Total XC Energy     :       -946.804312962 Ha         -25763.856206272 eV
  ------------------------------------ 
  LDA X and C from self-consistent density 
  X Energy LDA        :       -856.647302106 Ha         -23310.559118490 eV
  C Energy LDA        :        -46.890356519 Ha          -1275.951520577 eV
  ------------------------------------ 
  End decomposition of the XC Energy 
  ------------------------------------ 

------------------------------------------------------------

  ------------------------------------------------------------
                   Starting Mulliken Analysis
  ------------------------------------------------------------

  Performing Mulliken charge analysis on all atoms.
  Full analysis will be written to separate file 'Mulliken.out'.
  Summary of the per-atom charge analysis:
  |
  |  atom       electrons          charge             l=0             l=1             l=2             l=3
  |     1       21.005768        0.994232        6.056590       12.577418        2.222150        0.149610
  |     2       20.972790        1.027210        6.045151       12.579812        2.198528        0.149298
  |     3        7.616509        0.383491        2.791651        4.814454        0.010405
  |     4        8.592430       -0.592430        3.848737        4.733903        0.009789
  |     5        8.622116       -0.622116        3.846825        4.765673        0.009617
  |     6        8.622099       -0.622099        3.846820        4.765659        0.009620
  |     7       20.734673        1.265327        5.968295       12.504026        2.118022        0.144329
  |     8       20.972870        1.027130        6.045167       12.579892        2.198495        0.149316
  |     9        8.602353       -0.602353        3.846866        4.745504        0.009983
  |    10        8.585571       -0.585571        3.849927        4.725628        0.010017
  |    11        8.622136       -0.622136        3.846825        4.765695        0.009616
  |    12        8.622151       -0.622151        3.846828        4.765708        0.009614
  |    13       20.742516        1.257484        5.969659       12.507388        2.121413        0.144056
  |    14       20.722400        1.277600        5.961079       12.503920        2.113455        0.143946
  |    15        8.614130       -0.614130        3.848162        4.756203        0.009765
  |    16        8.621723       -0.621723        3.847278        4.764661        0.009784
  |    17        8.617145       -0.617145        3.848142        4.759115        0.009887
  |    18        8.613222       -0.613222        3.848369        4.755058        0.009795
  |    19       20.717154        1.282846        5.958770       12.504260        2.110214        0.143910
  |    20       20.722370        1.277630        5.961097       12.503910        2.113427        0.143935
  |    21        8.615384       -0.615384        3.848318        4.757332        0.009735
  |    22        8.614024       -0.614024        3.848048        4.756192        0.009784
  |    23        8.617113       -0.617113        3.848147        4.759078        0.009888
  |    24        8.613224       -0.613224        3.848374        4.755056        0.009794
  |    25       20.742512        1.257488        5.969658       12.507388        2.121411        0.144056
  |    26       20.722407        1.277593        5.961076       12.503922        2.113461        0.143948
  |    27        8.614135       -0.614135        3.848162        4.756208        0.009765
  |    28        8.621731       -0.621731        3.847278        4.764670        0.009784
  |    29        8.613219       -0.613219        3.848365        4.755058        0.009797
  |    30        8.617148       -0.617148        3.848140        4.759120        0.009888
  |    31       20.717154        1.282846        5.958770       12.504260        2.110215        0.143910
  |    32       20.722377        1.277623        5.961095       12.503912        2.113434        0.143937
  |    33        8.615390       -0.615390        3.848318        4.757337        0.009735
  |    34        8.614030       -0.614030        3.848048        4.756197        0.009784
  |    35        8.613222       -0.613222        3.848370        4.755056        0.009796
  |    36        8.617117       -0.617117        3.848144        4.759084        0.009888
  |    37       20.723022        1.276978        5.959227       12.504296        2.115477        0.144022
  |    38       20.720910        1.279090        5.959496       12.505710        2.111658        0.144046
  |    39        8.611008       -0.611008        3.848374        4.752906        0.009728
  |    40        8.607311       -0.607311        3.847418        4.750196        0.009697
  |    41        8.609505       -0.609505        3.848567        4.751154        0.009784
  |    42        8.609524       -0.609524        3.848569        4.751173        0.009782
  |    43       20.722320        1.277680        5.958751       12.504738        2.114960        0.143871
  |    44       20.720915        1.279085        5.959483       12.505713        2.111663        0.144056
  |    45        8.610282       -0.610282        3.848376        4.752153        0.009753
  |    46        8.613791       -0.613791        3.848300        4.755803        0.009689
  |    47        8.609563       -0.609563        3.848574        4.751210        0.009779
  |    48        8.609539       -0.609539        3.848570        4.751188        0.009781
  |
  | Total      607.000000        1.000000
 
  Writing Mulliken decomposition to disk ...

  Mulliken analysis                                       :  max(cpu_time)    wall_clock(cpu1)
  | Time for Mulliken analysis                            :          7.551               7.552
  | Total time for Mulliken analysis                      :          7.551               7.552
------------------------------------------------------------

------------------------------------------------------------------------------
  Final output of selected total energy values:

  The following output summarizes some interesting total energy values
  at the end of a run (AFTER all relaxation, molecular dynamics, etc.).

  | Total energy of the DFT / Hartree-Fock s.c.f. calculation      :        -437899.600968373 eV
  | Final zero-broadening corrected energy (caution - metals only) :        -437899.600968373 eV
  | For reference only, the value of 1 Hartree used in FHI-aims is :             27.211384500 eV
  | For reference only, the overall average (free atom contribution
  | + realspace contribution) of the electrostatic potential after
  | s.c.f. convergence is                                          :            -17.181437819 eV

  Before relying on these values, please be sure to understand exactly which
  total energy value is referred to by a given number. Different objects may
  all carry the same name 'total energy'. Definitions:

  Total energy of the DFT / Hartree-Fock s.c.f. calculation:
  | Note that this energy does not include ANY quantities calculated after the
  | s.c.f. cycle, in particular not ANY RPA, MP2, etc. many-body perturbation terms.

  Final zero-broadening corrected energy:
  | For metallic systems only, a broadening of the occupation numbers at the Fermi
  | level can be extrapolated back to zero broadening by an electron-gas inspired
  | formula. For all systems that are not real metals, this value can be
  | meaningless and should be avoided.

------------------------------------------------------------------------------
  Methods described in the following list of references were used in this FHI-aims run.
  If you publish the results, please make sure to cite these reference if they apply.
  FHI-aims is an academic code, and for our developers (often, Ph.D. students
  and postdocs), scientific credit in the community is essential.
  Thank you for helping us!

  For any use of FHI-aims, please cite:

    Volker Blum, Ralf Gehrke, Felix Hanke, Paula Havu, Ville Havu,
    Xinguo Ren, Karsten Reuter, and Matthias Scheffler
    'Ab initio molecular simulations with numeric atom-centered orbitals'
    Computer Physics Communications 180, 2175-2196 (2009)
    http://doi.org/10.1016/j.cpc.2009.06.022


  The provided symmetry information was generated with SPGlib:

    Atsushi Togo, Yusuke Seto, Dimitar Pashov
    SPGlib 1.7.3 obtained from http://spglib.sourceforge.net
    Licence: New BSD license
    Copyright (C) 2008 Atsushi Togo


  The ELSI infrastructure was used in your run to solve the Kohn-Sham electronic structure.
  Please check out https://wordpress.elsi-interchange.org to learn more.
  If scalability is important for your project, please acknowledge ELSI by citing:

    V. W-z. Yu, F. Corsetti, A. Garcia, W. P. Huhn, M. Jacquelin, W. Jia,
    B. Lange, L. Lin, J. Lu, W. Mi, A. Seifitokaldani, A. Vazquez-Mayagoitia,
    C. Yang, H. Yang, and V. Blum
    'ELSI: A unified software interface for Kohn-Sham electronic structure solvers'
    Computer Physics Communications 222, 267-285 (2018).
    http://doi.org/10.1016/j.cpc.2017.09.007


  For the real-space grid partitioning and parallelization used in this calculation, please cite:

    Ville Havu, Volker Blum, Paula Havu, and Matthias Scheffler,
    'Efficient O(N) integration for all-electron electronic structure calculation'
    'using numerically tabulated basis functions'
    Journal of Computational Physics 228, 8367-8379 (2009).
    http://doi.org/10.1016/j.jcp.2009.08.008

  Of course, there are many other important community references, e.g., those cited in the
  above references. Our list is limited to references that describe implementations in the
  FHI-aims code. The reason is purely practical (length of this list) - please credit others as well.

 * A warning was issued further up regarding the CPU load.
   Some CPUs do not participate in the eigenvalue solution.
   In corner cases, this may be the correct behavior. Otherwise,
   consider using a scalapack/elpa version of the code for a parallel treatment.

------------------------------------------------------------
          Leaving FHI-aims.
          Date     :  20240909, Time     :  143943.350

          Computational steps:
          | Number of self-consistency cycles          :           40
          | Number of SCF (re)initializations          :            1

          Detailed time accounting                     :  max(cpu_time)    wall_clock(cpu1)
          | Total time                                  :      105.656 s         105.681 s
          | Preparation time                            :        0.395 s           0.394 s
          | Boundary condition initalization            :        0.091 s           0.091 s
          | Grid partitioning                           :        0.105 s           0.108 s
          | Preloading free-atom quantities on grid     :        0.219 s           0.219 s
          | Free-atom superposition energy              :        0.023 s           0.023 s
          | Total time for integrations                 :       14.071 s          14.079 s
          | Total time for solution of K.-S. equations  :       48.798 s          48.801 s
          | Total time for density update               :       30.065 s          30.066 s
          | Total time for mixing                       :        0.389 s           0.383 s
          | Total time for Hartree multipole update     :        0.205 s           0.202 s
          | Total time for Hartree multipole sum        :        3.471 s           3.475 s
          | Total time for total energy evaluation      :        0.053 s           0.060 s
          | Total time for scaled ZORA corrections      :        0.000 s           0.000 s
          | Total time for Mulliken analysis            :        7.551 s           7.552 s

          Partial memory accounting:
          | Residual value for overall tracked memory usage across tasks:     0.000000 MB (should be 0.000000 MB)
          | Peak values for overall tracked memory usage:
          |   Minimum:       55.431 MB (on task  72 after allocating kdm)
          |   Maximum:      103.318 MB (on task  42 after allocating eval_tmp)
          |   Average:       74.889 MB
          | Largest tracked array allocation:
          |   Minimum:       16.182 MB (overlap_matrix on task   0)
          |   Maximum:       16.182 MB (overlap_matrix on task   0)
          |   Average:       16.182 MB
          Note:  These values currently only include a subset of arrays which are explicitly tracked.
          The "true" memory usage will be greater.

          Have a nice day.
------------------------------------------------------------
