------------------------------------------------------------
          Invoking FHI-aims ...

          When using FHI-aims, please cite the following reference:

            Volker Blum, Ralf Gehrke, Felix Hanke, Paula Havu,
            Ville Havu, Xinguo Ren, Karsten Reuter, and Matthias Scheffler,
            'Ab Initio Molecular Simulations with Numeric Atom-Centered Orbitals',
            Computer Physics Communications 180, 2175-2196 (2009)

          In addition, many other developments in FHI-aims are likely important for
          your particular application. If so, please cite them. A partial list of references
          is written at the end of this file. Thank you for giving credit to the authors
          of these developments.

          For general information about FHI-aims please find us at

            https://fhi-aims.org

          Online tutorials can be found at

            https://fhi-aims-club.gitlab.io/tutorials/tutorials-overview/

          For any questions about FHI-aims, please visit our slack channel at

            https://fhi-aims.slack.com

          and our main development and support site at

            https://aims-git.rz-berlin.mpg.de .

          The latter site, in particular, has a wiki to collect information, as well
          as an issue tracker to log discussions, suggest improvements, and report issues
          or bugs. https://aims-git.rz-berlin.mpg.de is also the main development site
          of the project and all new and updated code versions can be obtained there.
          Please send an email to aims-coordinators@fhi-berlin.mpg.de and we will add
          you to these sites. They are for you and everyone is welcome there.

------------------------------------------------------------



  Date     :  20250123, Time     :  114253.804
  Time zero on CPU 1             :   0.504084000000000E+00  s.
  Internal wall clock time zero  :           506864573.804  s.

  FHI-aims created a unique identifier for this run for later identification
  aims_uuid : 13BCDF39-85FE-499B-ADB2-2F6242059015

  Build configuration of the current instance of FHI-aims
  -------------------------------------------------------
  FHI-aims version      : 240605
  Commit number         : b001b2e18
  CMake host system     : Linux-6.5.0-41-generic
  CMake version         : 3.22.1
  Fortran compiler      : /opt/intel/oneapi/mpi/2021.12/bin/mpiifort (IntelLLVM) version 2024.1.0
  Fortran compiler flags: -fc=ifx -O3 -ip -fp-model precise
  C compiler            : /opt/intel/oneapi/mpi/2021.12/bin/mpiicc (IntelLLVM) version 2024.1.0
  C compiler flags      : -cc=icx -O3 -ip -fp-model precise -std=gnu99
  C++ compiler          : /opt/intel/oneapi/mpi/2021.12/bin/mpiicpc (IntelLLVM) version 2024.1.0
  C++ compiler flags    : -cxx=icpx -O3 -ip -fp-model precise -std=c++11
  HIP compiler          :
  HIP compiler flags    :
  HIP GPU arch          :
  Using MPI
  Using ScaLAPACK
  Using LibXC
  Using i-PI
  Using RLSY
  Linking against: /opt/intel/oneapi/mkl/2024.1/lib/intel64/libmkl_intel_lp64.so
                   /opt/intel/oneapi/mkl/2024.1/lib/intel64/libmkl_sequential.so
                   /opt/intel/oneapi/mkl/2024.1/lib/intel64/libmkl_core.so
                   /opt/intel/oneapi/mkl/2024.1/lib/intel64/libmkl_blacs_intelmpi_lp64.so
                   /opt/intel/oneapi/mkl/2024.1/lib/intel64/libmkl_scalapack_lp64.so
                   /opt/intel/oneapi/mkl/2024.1/lib/intel64/libmkl_core.so

  Using       32 parallel tasks.
  Task        0 on host RSL-arvutus reporting.
  Task        1 on host RSL-arvutus reporting.
  Task        2 on host RSL-arvutus reporting.
  Task        3 on host RSL-arvutus reporting.
  Task        4 on host RSL-arvutus reporting.
  Task        5 on host RSL-arvutus reporting.
  Task        6 on host RSL-arvutus reporting.
  Task        7 on host RSL-arvutus reporting.
  Task        8 on host RSL-arvutus reporting.
  Task        9 on host RSL-arvutus reporting.
  Task       10 on host RSL-arvutus reporting.
  Task       11 on host RSL-arvutus reporting.
  Task       12 on host RSL-arvutus reporting.
  Task       13 on host RSL-arvutus reporting.
  Task       14 on host RSL-arvutus reporting.
  Task       15 on host RSL-arvutus reporting.
  Task       16 on host RSL-arvutus reporting.
  Task       17 on host RSL-arvutus reporting.
  Task       18 on host RSL-arvutus reporting.
  Task       19 on host RSL-arvutus reporting.
  Task       20 on host RSL-arvutus reporting.
  Task       21 on host RSL-arvutus reporting.
  Task       22 on host RSL-arvutus reporting.
  Task       23 on host RSL-arvutus reporting.
  Task       24 on host RSL-arvutus reporting.
  Task       25 on host RSL-arvutus reporting.
  Task       26 on host RSL-arvutus reporting.
  Task       27 on host RSL-arvutus reporting.
  Task       28 on host RSL-arvutus reporting.
  Task       29 on host RSL-arvutus reporting.
  Task       30 on host RSL-arvutus reporting.
  Task       31 on host RSL-arvutus reporting.

  Memory overcommitment is allowed on your operating system.

  Obtaining array dimensions for all initial allocations:
  
  -----------------------------------------------------------------------
  Parsing control.in (first pass over file, find array dimensions only).
  The contents of control.in will be repeated verbatim below
  unless switched off by setting 'verbatim_writeout .false.' .
  in the first line of control.in .
  -----------------------------------------------------------------------
  
    xc              pbe
    relativistic    zora scalar 1.0e-12
    k_grid          4 4 6
  
    charge	  1.0
    output          Mulliken
  
  
  ################################################################################
  #
  #  FHI-aims code project
  #  VB, Fritz-Haber Institut, 2009
  #
  #  Suggested "light" defaults for Ti atom (to be pasted into control.in file)
  #  Be sure to double-check any results obtained with these settings for post-processing,
  #  e.g., with the "tight" defaults and larger basis sets.
  #
  ################################################################################
    species        Ti
  #     global species definitions
      nucleus             22
      mass                47.867
  #
      l_hartree           4
  #
      cut_pot             3.5          1.5  1.0
      basis_dep_cutoff    1e-4
  #
      radial_base         48 5.0
      radial_multiplier   1
      angular_grids       specified
        division   0.5171   50
        division   0.9824  110
        division   1.2917  194
        division   1.4940  302
  #      division   1.6934  434
  #      division   1.8425  590
  #      division   2.1901  770
  #      division   2.2896  974
  #      division   2.8244 1202
  #      outer_grid  974
        outer_grid  302
  ################################################################################
  #
  #  Definition of "minimal" basis
  #
  ################################################################################
  #     valence basis states
      valence      4  s   2.
      valence      3  p   6.
      valence      3  d   2.
  #     ion occupancy
      ion_occ      4  s   1.
      ion_occ      3  p   6.
      ion_occ      3  d   1.
  ################################################################################
  #
  #  Suggested additional basis functions. For production calculations,
  #  uncomment them one after another (the most important basis functions are
  #  listed first).
  #
  #  Constructed for dimers: 1.6 A, 1.85 A, 2.5 A, 3.25 A, 4.25 A
  #
  ################################################################################
  #  "First tier" - improvements: -396.25 meV to -19.41 meV
       hydro 4 f 8
       hydro 3 d 2.7
       ionic 4 p auto
  #     hydro 5 g 11.6
       ionic 4 s auto
  #  "Second tier" - improvements: -16.30 meV to -2.03 meV
  #     hydro 3 d 4.4
  #     hydro 6 h 16
  #     hydro 4 f 9.4
  #     hydro 4 p 4.5
  #     hydro 1 s 0.5
  #  "Third tier" - improvements: -6.28 meV to -0.37 meV
  #     hydro 4 d 6.4
  #     hydro 4 f 10
  #     hydro 5 g 12
  #     hydro 2 p 1.7
  #     hydro 6 h 16.4
  #     hydro 4 s 3.8
  #  Further basis functions: -0.45 meV and smaller improvements
  #     hydro 3 d 8.8
  #     hydro 5 p 18
  #     hydro 4 f 22.4
  #     hydro 5 f 7.2  # -0.16 meV
  #     hydro 3 d 2.1  # -0.11 meV
  #     hydro 5 g 7.4  # -0.09 meV
  
  
  ################################################################################
  #
  #  FHI-aims code project
  #  VB, Fritz-Haber Institut, 2009
  #
  #  Suggested "light" defaults for O atom (to be pasted into control.in file)
  #  Be sure to double-check any results obtained with these settings for post-processing,
  #  e.g., with the "tight" defaults and larger basis sets.
  #
  ################################################################################
    species        O
  #     global species definitions
      nucleus             8
      mass                15.9994
  #
      l_hartree           4
  #
      cut_pot             3.5  1.5  1.0
      basis_dep_cutoff    1e-4
  #
      radial_base         36 5.0
      radial_multiplier   1
       angular_grids specified
        division   0.2659   50
        division   0.4451  110
        division   0.6052  194
        division   0.7543  302
  #      division   0.8014  434
  #      division   0.8507  590
  #      division   0.8762  770
  #      division   0.9023  974
  #      division   1.2339 1202
  #      outer_grid 974
        outer_grid 302
  ################################################################################
  #
  #  Definition of "minimal" basis
  #
  ################################################################################
  #     valence basis states
      valence      2  s   2.
      valence      2  p   4.
  #     ion occupancy
      ion_occ      2  s   1.
      ion_occ      2  p   3.
  ################################################################################
  #
  #  Suggested additional basis functions. For production calculations,
  #  uncomment them one after another (the most important basis functions are
  #  listed first).
  #
  #  Constructed for dimers: 1.0 A, 1.208 A, 1.5 A, 2.0 A, 3.0 A
  #
  ################################################################################
  #  "First tier" - improvements: -699.05 meV to -159.38 meV
       hydro 2 p 1.8
       hydro 3 d 7.6
       hydro 3 s 6.4
  #  "Second tier" - improvements: -49.91 meV to -5.39 meV
  #     hydro 4 f 11.6
  #     hydro 3 p 6.2
  #     hydro 3 d 5.6
  #     hydro 5 g 17.6
  #     hydro 1 s 0.75
  #  "Third tier" - improvements: -2.83 meV to -0.50 meV
  #     ionic 2 p auto
  #     hydro 4 f 10.8
  #     hydro 4 d 4.7
  #     hydro 2 s 6.8
  #  "Fourth tier" - improvements: -0.40 meV to -0.12 meV
  #     hydro 3 p 5
  #     hydro 3 s 3.3
  #     hydro 5 g 15.6
  #     hydro 4 f 17.6
  #     hydro 4 d 14
  # Further basis functions - -0.08 meV and below
  #     hydro 3 s 2.1
  #     hydro 4 d 11.6
  #     hydro 3 p 16
  #     hydro 2 s 17.2
  ################################################################################
  #
  #  FHI-aims code project
  #  VB, Fritz-Haber Institut, 2009
  #
  #  Suggested "light" defaults for F atom (to be pasted into control.in file)
  #  Be sure to double-check any results obtained with these settings for post-processing,
  #  e.g., with the "tight" defaults and larger basis sets.
  #
  ################################################################################
    species        F
  #     global species definitions
      nucleus             9
      mass                18.9984032
  #
      l_hartree           4
  #
      cut_pot             3.5  1.5  1.0
      basis_dep_cutoff    1e-4
  #
      radial_base         37 5.0
      radial_multiplier   1
      angular_grids specified
        division   0.4014  110
        division   0.5291  194
        division   0.6019  302
  #      division   0.6814  434
  #      division   0.7989  590
  #      division   0.8965  770
  #      division   1.3427  974
  #      outer_grid   974
        outer_grid   302
  ################################################################################
  #
  #  Definition of "minimal" basis
  #
  ################################################################################
  #     valence basis states
      valence      2  s   2.
      valence      2  p   5.
  #     ion occupancy
      ion_occ      2  s   1.
      ion_occ      2  p   4.
  ################################################################################
  #
  #  Suggested additional basis functions. For production calculations,
  #  uncomment them one after another (the most important basis functions are
  #  listed first).
  #
  #  Constructed for dimers: 1.2 A, 1.418 A, 1.75 A, 2.25 A, 3.25 A
  #
  ################################################################################
  #  "First tier" - improvements: -149.44 meV to -45.88 meV
       hydro 2 p 1.7
       hydro 3 d 7.4
       hydro 3 s 6.8
  #  "Second tier" - improvements: -12.96 meV to -1.56 meV
  #     hydro 4 f 11.2
  #     ionic 2 p auto
  #     hydro 1 s 0.75
  #     hydro 4 d 8.8
  #     hydro 5 g 16.8
  #  "Third tier" - improvements: -0.58 meV to -0.05 meV
  #     hydro 3 p 6.2
  #     hydro 3 s 3.2
  #     hydro 4 f 9.6
  #     hydro 3 s 19.6
  #     hydro 4 d 8.6
  #     hydro 5 g 14.4
  # Further basis functions: -0.05 meV and below
  #     hydro 3 p 4.2
  
  -----------------------------------------------------------------------
  Completed first pass over input file control.in .
  -----------------------------------------------------------------------
  
  
  -----------------------------------------------------------------------
  Parsing geometry.in (first pass over file, find array dimensions only).
  The contents of geometry.in will be repeated verbatim below
  unless switched off by setting 'verbatim_writeout .false.' .
  in the first line of geometry.in .
  -----------------------------------------------------------------------
  
  lattice_vector 13.929185 0.000365 0.000000
  lattice_vector 0.000365 13.929260 0.000000
  lattice_vector 0.000000 0.000000 8.918648
  
  atom_frac 1.000000 0.000000 0.000000 Ti
  atom_frac 0.166667 0.166667 0.166667 Ti
  atom_frac 0.101853 0.101856 0.000000 F
  atom_frac 0.231481 0.231478 0.000000 O
  atom_frac 0.064815 0.268521 0.166667 O
  atom_frac 0.268518 0.064812 0.166667 O
  atom_frac 1.000000 0.000000 0.333333 Ti
  atom_frac 0.166667 0.166667 0.500000 Ti
  atom_frac 0.101853 0.101856 0.333333 O
  atom_frac 0.231481 0.231478 0.333333 O
  atom_frac 0.064815 0.268521 0.500000 O
  atom_frac 0.268518 0.064812 0.500000 O
  atom_frac 1.000000 0.000000 0.666667 Ti
  atom_frac 0.166667 0.166667 0.833333 Ti
  atom_frac 0.101853 0.101856 0.666667 O
  atom_frac 0.231481 0.231478 0.666667 O
  atom_frac 0.064815 0.268521 0.833333 O
  atom_frac 0.268518 0.064812 0.833333 O
  atom_frac 1.000000 0.333333 0.000000 Ti
  atom_frac 0.166667 0.500000 0.166667 Ti
  atom_frac 0.101853 0.435189 0.000000 O
  atom_frac 0.231481 0.564811 0.000000 O
  atom_frac 0.064815 0.601854 0.166667 O
  atom_frac 0.268518 0.398146 0.166667 O
  atom_frac 1.000000 0.333333 0.333333 Ti
  atom_frac 0.166667 0.500000 0.500000 Ti
  atom_frac 0.101853 0.435189 0.333333 O
  atom_frac 0.231481 0.564811 0.333333 O
  atom_frac 0.064815 0.601854 0.500000 O
  atom_frac 0.268518 0.398146 0.500000 O
  atom_frac 1.000000 0.333333 0.666667 Ti
  atom_frac 0.166667 0.500000 0.833333 Ti
  atom_frac 0.101853 0.435189 0.666667 O
  atom_frac 0.231481 0.564811 0.666667 O
  atom_frac 0.064815 0.601854 0.833333 O
  atom_frac 0.268518 0.398146 0.833333 O
  atom_frac 1.000000 0.666667 0.000000 Ti
  atom_frac 0.166667 0.833333 0.166667 Ti
  atom_frac 0.101853 0.768522 0.000000 O
  atom_frac 0.231481 0.898144 0.000000 O
  atom_frac 0.064815 0.935188 0.166667 O
  atom_frac 0.268518 0.731479 0.166667 O
  atom_frac 1.000000 0.666667 0.333333 Ti
  atom_frac 0.166667 0.833333 0.500000 Ti
  atom_frac 0.101853 0.768522 0.333333 O
  atom_frac 0.231481 0.898144 0.333333 O
  atom_frac 0.064815 0.935188 0.500000 O
  atom_frac 0.268518 0.731479 0.500000 O
  atom_frac 1.000000 0.666667 0.666667 Ti
  atom_frac 0.166667 0.833333 0.833333 Ti
  atom_frac 0.101853 0.768522 0.666667 O
  atom_frac 0.231481 0.898144 0.666667 O
  atom_frac 0.064815 0.935188 0.833333 O
  atom_frac 0.268518 0.731479 0.833333 O
  atom_frac 0.333333 0.000000 0.000000 Ti
  atom_frac 0.500000 0.166667 0.166667 Ti
  atom_frac 0.435186 0.101856 0.000000 O
  atom_frac 0.564814 0.231478 0.000000 O
  atom_frac 0.398149 0.268521 0.166667 O
  atom_frac 0.601851 0.064812 0.166667 O
  atom_frac 0.333333 0.000000 0.333333 Ti
  atom_frac 0.500000 0.166667 0.500000 Ti
  atom_frac 0.435186 0.101856 0.333333 O
  atom_frac 0.564814 0.231478 0.333333 O
  atom_frac 0.398149 0.268521 0.500000 O
  atom_frac 0.601851 0.064812 0.500000 O
  atom_frac 0.333333 0.000000 0.666667 Ti
  atom_frac 0.500000 0.166667 0.833333 Ti
  atom_frac 0.435186 0.101856 0.666667 O
  atom_frac 0.564814 0.231478 0.666667 O
  atom_frac 0.398149 0.268521 0.833333 O
  atom_frac 0.601851 0.064812 0.833333 O
  atom_frac 0.333333 0.333333 0.000000 Ti
  atom_frac 0.500000 0.500000 0.166667 Ti
  atom_frac 0.435186 0.435189 0.000000 O
  atom_frac 0.564814 0.564811 0.000000 O
  atom_frac 0.398149 0.601854 0.166667 O
  atom_frac 0.601851 0.398146 0.166667 O
  atom_frac 0.333333 0.333333 0.333333 Ti
  atom_frac 0.500000 0.500000 0.500000 Ti
  atom_frac 0.435186 0.435189 0.333333 O
  atom_frac 0.564814 0.564811 0.333333 O
  atom_frac 0.398149 0.601854 0.500000 O
  atom_frac 0.601851 0.398146 0.500000 O
  atom_frac 0.333333 0.333333 0.666667 Ti
  atom_frac 0.500000 0.500000 0.833333 Ti
  atom_frac 0.435186 0.435189 0.666667 O
  atom_frac 0.564814 0.564811 0.666667 O
  atom_frac 0.398149 0.601854 0.833333 O
  atom_frac 0.601851 0.398146 0.833333 O
  atom_frac 0.333333 0.666667 0.000000 Ti
  atom_frac 0.500000 0.833333 0.166667 Ti
  atom_frac 0.435186 0.768522 0.000000 O
  atom_frac 0.564814 0.898144 0.000000 O
  atom_frac 0.398149 0.935188 0.166667 O
  atom_frac 0.601851 0.731479 0.166667 O
  atom_frac 0.333333 0.666667 0.333333 Ti
  atom_frac 0.500000 0.833333 0.500000 Ti
  atom_frac 0.435186 0.768522 0.333333 O
  atom_frac 0.564814 0.898144 0.333333 O
  atom_frac 0.398149 0.935188 0.500000 O
  atom_frac 0.601851 0.731479 0.500000 O
  atom_frac 0.333333 0.666667 0.666667 Ti
  atom_frac 0.500000 0.833333 0.833333 Ti
  atom_frac 0.435186 0.768522 0.666667 O
  atom_frac 0.564814 0.898144 0.666667 O
  atom_frac 0.398149 0.935188 0.833333 O
  atom_frac 0.601851 0.731479 0.833333 O
  atom_frac 0.666667 0.000000 0.000000 Ti
  atom_frac 0.833333 0.166667 0.166667 Ti
  atom_frac 0.768519 0.101856 0.000000 O
  atom_frac 0.898147 0.231478 0.000000 O
  atom_frac 0.731482 0.268521 0.166667 O
  atom_frac 0.935185 0.064812 0.166667 O
  atom_frac 0.666667 0.000000 0.333333 Ti
  atom_frac 0.833333 0.166667 0.500000 Ti
  atom_frac 0.768519 0.101856 0.333333 O
  atom_frac 0.898147 0.231478 0.333333 O
  atom_frac 0.731482 0.268521 0.500000 O
  atom_frac 0.935185 0.064812 0.500000 O
  atom_frac 0.666667 0.000000 0.666667 Ti
  atom_frac 0.833333 0.166667 0.833333 Ti
  atom_frac 0.768519 0.101856 0.666667 O
  atom_frac 0.898147 0.231478 0.666667 O
  atom_frac 0.731482 0.268521 0.833333 O
  atom_frac 0.935185 0.064812 0.833333 O
  atom_frac 0.666667 0.333333 0.000000 Ti
  atom_frac 0.833333 0.500000 0.166667 Ti
  atom_frac 0.768519 0.435189 0.000000 O
  atom_frac 0.898147 0.564811 0.000000 O
  atom_frac 0.731482 0.601854 0.166667 O
  atom_frac 0.935185 0.398146 0.166667 O
  atom_frac 0.666667 0.333333 0.333333 Ti
  atom_frac 0.833333 0.500000 0.500000 Ti
  atom_frac 0.768519 0.435189 0.333333 O
  atom_frac 0.898147 0.564811 0.333333 O
  atom_frac 0.731482 0.601854 0.500000 O
  atom_frac 0.935185 0.398146 0.500000 O
  atom_frac 0.666667 0.333333 0.666667 Ti
  atom_frac 0.833333 0.500000 0.833333 Ti
  atom_frac 0.768519 0.435189 0.666667 O
  atom_frac 0.898147 0.564811 0.666667 O
  atom_frac 0.731482 0.601854 0.833333 O
  atom_frac 0.935185 0.398146 0.833333 O
  atom_frac 0.666667 0.666667 0.000000 Ti
  atom_frac 0.833333 0.833333 0.166667 Ti
  atom_frac 0.768519 0.768522 0.000000 O
  atom_frac 0.898147 0.898144 0.000000 O
  atom_frac 0.731482 0.935188 0.166667 O
  atom_frac 0.935185 0.731479 0.166667 O
  atom_frac 0.666667 0.666667 0.333333 Ti
  atom_frac 0.833333 0.833333 0.500000 Ti
  atom_frac 0.768519 0.768522 0.333333 O
  atom_frac 0.898147 0.898144 0.333333 O
  atom_frac 0.731482 0.935188 0.500000 O
  atom_frac 0.935185 0.731479 0.500000 O
  atom_frac 0.666667 0.666667 0.666667 Ti
  atom_frac 0.833333 0.833333 0.833333 Ti
  atom_frac 0.768519 0.768522 0.666667 O
  atom_frac 0.898147 0.898144 0.666667 O
  atom_frac 0.731482 0.935188 0.833333 O
  atom_frac 0.935185 0.731479 0.833333 O
  
  -----------------------------------------------------------------------
  Completed first pass over input file geometry.in .
  -----------------------------------------------------------------------
  

  Basic array size parameters:
  | Number of species                 :        3
  | Number of atoms                   :      162
  | Number of lattice vectors         :        3
  | Max. basis fn. angular momentum   :        3
  | Max. atomic/ionic basis occupied n:        4
  | Max. number of basis fn. types    :        3
  | Max. radial fns per species/type  :        7
  | Max. logarithmic grid size        :     1383
  | Max. radial integration grid size :       48
  | Max. angular integration grid size:      302
  | Max. angular grid division number :        8
  | Radial grid for Hartree potential :     1383
  | Number of spin channels           :        1

------------------------------------------------------------
          Reading file control.in.
------------------------------------------------------------
  XC: Using PBE gradient-corrected functionals.
  Scalar relativistic treatment of kinetic energy: ZORA.
  Threshold value for ZORA:   0.100000E-11
  Found k-point grid:         4         4         6
  Charged system requested: Charge =   0.100000E+01.
  Mulliken charge analysis will be performed and summarised to the main output.
  Full Mulliken charge analysis will be written to file 'Mulliken.out'.
 
  Reading configuration options for species Ti                  .
  | Found nuclear charge :  22.0000
  | Found atomic mass :    47.8670000000000      amu
  | Found l_max for Hartree potential  :   4
  | Found cutoff potl. onset [A], width [A], scale factor :    3.50000    1.50000    1.00000
  | Threshold for basis-dependent cutoff potential is   0.100000E-03
  | Found data for basic radial integration grid :    48 points, outermost radius =    5.000 A
  | Found multiplier for basic radial grid :   1
  | Found angular grid specification: user-specified.
  | Specified grid contains     5 separate shells.
  | Check grid settings after all constraints further below.
  | Found free-atom valence shell :  4 s   2.000
  | Found free-atom valence shell :  3 p   6.000
  | Found free-atom valence shell :  3 d   2.000
  | Found free-ion valence shell :  4 s   1.000
  | Found free-ion valence shell :  3 p   6.000
  | Found free-ion valence shell :  3 d   1.000
  | Found hydrogenic basis function :  4 f   8.000
  | Found hydrogenic basis function :  3 d   2.700
  | Found ionic basis function :  4 p , default cutoff radius.
  | Found ionic basis function :  4 s , default cutoff radius.
 | Encountered keyword species, ending the description of species Ti                  .
  Species Ti                  : Missing cutoff potential type.
  Defaulting to exp(1/x)/(1-x)^2 type cutoff potential.
  Species Ti: No 'logarithmic' tag. Using default grid for free atom:
  | Default logarithmic grid data [bohr] : 0.1000E-03 0.1000E+03 0.1012E+01
  | Will include ionic basis functions of  2.0-fold positive Ti                   ion.
  Species Ti: On-site basis accuracy parameter (for Gram-Schmidt orthonormalisation) not specified.
  Using default value basis_acc =  0.1000000E-03.
  Species Ti                  : Using default innermost maximum threshold i_radial=  2 for radial functions.
  Species Ti                  : Default cutoff onset for free atom density etc. : 0.35000000E+01 AA.
  Species Ti                  : Basic radial grid will be enhanced according to radial_multiplier =   1, to contain    48 grid points.
 
  Reading configuration options for species O                   .
  | Found nuclear charge :   8.0000
  | Found atomic mass :    15.9994000000000      amu
  | Found l_max for Hartree potential  :   4
  | Found cutoff potl. onset [A], width [A], scale factor :    3.50000    1.50000    1.00000
  | Threshold for basis-dependent cutoff potential is   0.100000E-03
  | Found data for basic radial integration grid :    36 points, outermost radius =    5.000 A
  | Found multiplier for basic radial grid :   1
  | Found angular grid specification: user-specified.
  | Specified grid contains     5 separate shells.
  | Check grid settings after all constraints further below.
  | Found free-atom valence shell :  2 s   2.000
  | Found free-atom valence shell :  2 p   4.000
  | Found free-ion valence shell :  2 s   1.000
  | Found free-ion valence shell :  2 p   3.000
  | Found hydrogenic basis function :  2 p   1.800
  | Found hydrogenic basis function :  3 d   7.600
  | Found hydrogenic basis function :  3 s   6.400
 | Encountered keyword species, ending the description of species O                   .
  Species O                   : Missing cutoff potential type.
  Defaulting to exp(1/x)/(1-x)^2 type cutoff potential.
  Species O : No 'logarithmic' tag. Using default grid for free atom:
  | Default logarithmic grid data [bohr] : 0.1000E-03 0.1000E+03 0.1012E+01
  Species O : On-site basis accuracy parameter (for Gram-Schmidt orthonormalisation) not specified.
  Using default value basis_acc =  0.1000000E-03.
  Species O                   : Using default innermost maximum threshold i_radial=  2 for radial functions.
  Species O                   : Default cutoff onset for free atom density etc. : 0.35000000E+01 AA.
  Species O                   : Basic radial grid will be enhanced according to radial_multiplier =   1, to contain    36 grid points.
 
  Reading configuration options for species F                   .
  | Found nuclear charge :   9.0000
  | Found atomic mass :    18.9984032000000      amu
  | Found l_max for Hartree potential  :   4
  | Found cutoff potl. onset [A], width [A], scale factor :    3.50000    1.50000    1.00000
  | Threshold for basis-dependent cutoff potential is   0.100000E-03
  | Found data for basic radial integration grid :    37 points, outermost radius =    5.000 A
  | Found multiplier for basic radial grid :   1
  | Found angular grid specification: user-specified.
  | Specified grid contains     4 separate shells.
  | Check grid settings after all constraints further below.
  | Found free-atom valence shell :  2 s   2.000
  | Found free-atom valence shell :  2 p   5.000
  | Found free-ion valence shell :  2 s   1.000
  | Found free-ion valence shell :  2 p   4.000
  | Found hydrogenic basis function :  2 p   1.700
  | Found hydrogenic basis function :  3 d   7.400
  | Found hydrogenic basis function :  3 s   6.800
  Species F                   : Missing cutoff potential type.
  Defaulting to exp(1/x)/(1-x)^2 type cutoff potential.
  Species F : No 'logarithmic' tag. Using default grid for free atom:
  | Default logarithmic grid data [bohr] : 0.1000E-03 0.1000E+03 0.1012E+01
  Species F : On-site basis accuracy parameter (for Gram-Schmidt orthonormalisation) not specified.
  Using default value basis_acc =  0.1000000E-03.
  Species F                   : Using default innermost maximum threshold i_radial=  2 for radial functions.
  Species F                   : Default cutoff onset for free atom density etc. : 0.35000000E+01 AA.
  Species F                   : Basic radial grid will be enhanced according to radial_multiplier =   1, to contain    37 grid points.
 
  Finished reading input file 'control.in'.
 
------------------------------------------------------------


------------------------------------------------------------
          Reading geometry description geometry.in.
------------------------------------------------------------
  | The smallest distance between any two atoms is         1.95946585 AA.
  | The first atom of this pair is atom number                    125 .
  | The second atom of this pair is atom number                   139 .
  | Wigner-Seitz cell of the first atom image           0     0     0 .
  | (The Wigner-Seitz cell of the second atom is 0 0 0  by definition.)

  Symmetry information by spglib:
  | Precision set to  0.1E-04
  | Number of Operations  : 2
  | Space group           : 6
  | International         : Pm      /op
  | Schoenflies           : Cs^1
  Input structure read successfully.
  The structure contains      162 atoms,  and a total of       2052.000 electrons.

  Input geometry:
  | Unit cell:
  |       13.92918500        0.00036500        0.00000000
  |        0.00036500       13.92926000        0.00000000
  |        0.00000000        0.00000000        8.91864800
  | Atomic structure:
  |       Atom                x [A]            y [A]            z [A]
  |    1: Species Ti           13.92918500        0.00036500        0.00000000
  |    2: Species Ti            2.32159631        2.32160881        1.48644431
  |    3: Species F             1.41876646        1.41881588        0.00000000
  |    4: Species O             3.22442616        3.22440174        0.00000000
  |    5: Species O             0.90291814        3.74032248        1.48644431
  |    6: Species O             3.74026055        0.90288121        1.48644431
  |    7: Species Ti           13.92918500        0.00036500        2.97287969
  |    8: Species Ti            2.32159631        2.32160881        4.45932400
  |    9: Species O             1.41876646        1.41881588        2.97287969
  |   10: Species O             3.22442616        3.22440174        2.97287969
  |   11: Species O             0.90291814        3.74032248        4.45932400
  |   12: Species O             3.74026055        0.90288121        4.45932400
  |   13: Species Ti           13.92918500        0.00036500        5.94576831
  |   14: Species Ti            2.32159631        2.32160881        7.43220369
  |   15: Species O             1.41876646        1.41881588        5.94576831
  |   16: Species O             3.22442616        3.22440174        5.94576831
  |   17: Species O             0.90291814        3.74032248        7.43220369
  |   18: Species O             3.74026055        0.90288121        7.43220369
  |   19: Species Ti           13.92930667        4.64344702        0.00000000
  |   20: Species Ti            2.32171798        6.96469083        1.48644431
  |   21: Species O             1.41888812        6.06189791        0.00000000
  |   22: Species O             3.22454783        7.86748376        0.00000000
  |   23: Species O             0.90303980        8.38340451        1.48644431
  |   24: Species O             3.74038222        5.54597716        1.48644431
  |   25: Species Ti           13.92930667        4.64344702        2.97287969
  |   26: Species Ti            2.32171798        6.96469083        4.45932400
  |   27: Species O             1.41888812        6.06189791        2.97287969
  |   28: Species O             3.22454783        7.86748376        2.97287969
  |   29: Species O             0.90303980        8.38340451        4.45932400
  |   30: Species O             3.74038222        5.54597716        4.45932400
  |   31: Species Ti           13.92930667        4.64344702        5.94576831
  |   32: Species Ti            2.32171798        6.96469083        7.43220369
  |   33: Species O             1.41888812        6.06189791        5.94576831
  |   34: Species O             3.22454783        7.86748376        5.94576831
  |   35: Species O             0.90303980        8.38340451        7.43220369
  |   36: Species O             3.74038222        5.54597716        7.43220369
  |   37: Species Ti           13.92942833        9.28654298        0.00000000
  |   38: Species Ti            2.32183964       11.60777286        1.48644431
  |   39: Species O             1.41900979       10.70497993        0.00000000
  |   40: Species O             3.22466950       12.51056578        0.00000000
  |   41: Species O             0.90316147       13.02650046        1.48644431
  |   42: Species O             3.74050389       10.18905918        1.48644431
  |   43: Species Ti           13.92942833        9.28654298        2.97287969
  |   44: Species Ti            2.32183964       11.60777286        4.45932400
  |   45: Species O             1.41900979       10.70497993        2.97287969
  |   46: Species O             3.22466950       12.51056578        2.97287969
  |   47: Species O             0.90316147       13.02650046        4.45932400
  |   48: Species O             3.74050389       10.18905918        4.45932400
  |   49: Species Ti           13.92942833        9.28654298        5.94576831
  |   50: Species Ti            2.32183964       11.60777286        7.43220369
  |   51: Species O             1.41900979       10.70497993        5.94576831
  |   52: Species O             3.22466950       12.51056578        5.94576831
  |   53: Species O             0.90316147       13.02650046        7.43220369
  |   54: Species O             3.74050389       10.18905918        7.43220369
  |   55: Species Ti            4.64305702        0.00012167        0.00000000
  |   56: Species Ti            6.96465333        2.32173048        1.48644431
  |   57: Species O             6.06182348        1.41893755        0.00000000
  |   58: Species O             7.86748319        3.22452340        0.00000000
  |   59: Species O             5.54598909        3.74044415        1.48644431
  |   60: Species O             8.38331758        0.90300287        1.48644431
  |   61: Species Ti            4.64305702        0.00012167        2.97287969
  |   62: Species Ti            6.96465333        2.32173048        4.45932400
  |   63: Species O             6.06182348        1.41893755        2.97287969
  |   64: Species O             7.86748319        3.22452340        2.97287969
  |   65: Species O             5.54598909        3.74044415        4.45932400
  |   66: Species O             8.38331758        0.90300287        4.45932400
  |   67: Species Ti            4.64305702        0.00012167        5.94576831
  |   68: Species Ti            6.96465333        2.32173048        7.43220369
  |   69: Species O             6.06182348        1.41893755        5.94576831
  |   70: Species O             7.86748319        3.22452340        5.94576831
  |   71: Species O             5.54598909        3.74044415        7.43220369
  |   72: Species O             8.38331758        0.90300287        7.43220369
  |   73: Species Ti            4.64317869        4.64320369        0.00000000
  |   74: Species Ti            6.96477500        6.96481250        1.48644431
  |   75: Species O             6.06194515        6.06201957        0.00000000
  |   76: Species O             7.86760485        7.86760543        0.00000000
  |   77: Species O             5.54611076        8.38352617        1.48644431
  |   78: Species O             8.38343924        5.54609883        1.48644431
  |   79: Species Ti            4.64317869        4.64320369        2.97287969
  |   80: Species Ti            6.96477500        6.96481250        4.45932400
  |   81: Species O             6.06194515        6.06201957        2.97287969
  |   82: Species O             7.86760485        7.86760543        2.97287969
  |   83: Species O             5.54611076        8.38352617        4.45932400
  |   84: Species O             8.38343924        5.54609883        4.45932400
  |   85: Species Ti            4.64317869        4.64320369        5.94576831
  |   86: Species Ti            6.96477500        6.96481250        7.43220369
  |   87: Species O             6.06194515        6.06201957        5.94576831
  |   88: Species O             7.86760485        7.86760543        5.94576831
  |   89: Species O             5.54611076        8.38352617        7.43220369
  |   90: Species O             8.38343924        5.54609883        7.43220369
  |   91: Species Ti            4.64330036        9.28629964        0.00000000
  |   92: Species Ti            6.96489667       11.60789452        1.48644431
  |   93: Species O             6.06206681       10.70510160        0.00000000
  |   94: Species O             7.86772652       12.51068745        0.00000000
  |   95: Species O             5.54623242       13.02662213        1.48644431
  |   96: Species O             8.38356091       10.18918085        1.48644431
  |   97: Species Ti            4.64330036        9.28629964        2.97287969
  |   98: Species Ti            6.96489667       11.60789452        4.45932400
  |   99: Species O             6.06206681       10.70510160        2.97287969
  |  100: Species O             7.86772652       12.51068745        2.97287969
  |  101: Species O             5.54623242       13.02662213        4.45932400
  |  102: Species O             8.38356091       10.18918085        4.45932400
  |  103: Species Ti            4.64330036        9.28629964        5.94576831
  |  104: Species Ti            6.96489667       11.60789452        7.43220369
  |  105: Species O             6.06206681       10.70510160        5.94576831
  |  106: Species O             7.86772652       12.51068745        5.94576831
  |  107: Species O             5.54623242       13.02662213        7.43220369
  |  108: Species O             8.38356091       10.18918085        7.43220369
  |  109: Species Ti            9.28612798        0.00024333        0.00000000
  |  110: Species Ti           11.60771036        2.32185214        1.48644431
  |  111: Species O            10.70488050        1.41905922        0.00000000
  |  112: Species O            12.51054021        3.22464507        0.00000000
  |  113: Species O            10.18904611        3.74056582        1.48644431
  |  114: Species O            13.02638853        0.90312454        1.48644431
  |  115: Species Ti            9.28612798        0.00024333        2.97287969
  |  116: Species Ti           11.60771036        2.32185214        4.45932400
  |  117: Species O            10.70488050        1.41905922        2.97287969
  |  118: Species O            12.51054021        3.22464507        2.97287969
  |  119: Species O            10.18904611        3.74056582        4.45932400
  |  120: Species O            13.02638853        0.90312454        4.45932400
  |  121: Species Ti            9.28612798        0.00024333        5.94576831
  |  122: Species Ti           11.60771036        2.32185214        7.43220369
  |  123: Species O            10.70488050        1.41905922        5.94576831
  |  124: Species O            12.51054021        3.22464507        5.94576831
  |  125: Species O            10.18904611        3.74056582        7.43220369
  |  126: Species O            13.02638853        0.90312454        7.43220369
  |  127: Species Ti            9.28624964        4.64332536        0.00000000
  |  128: Species Ti           11.60783202        6.96493417        1.48644431
  |  129: Species O            10.70500217        6.06214124        0.00000000
  |  130: Species O            12.51066188        7.86772709        0.00000000
  |  131: Species O            10.18916778        8.38364784        1.48644431
  |  132: Species O            13.02651020        5.54622049        1.48644431
  |  133: Species Ti            9.28624964        4.64332536        2.97287969
  |  134: Species Ti           11.60783202        6.96493417        4.45932400
  |  135: Species O            10.70500217        6.06214124        2.97287969
  |  136: Species O            12.51066188        7.86772709        2.97287969
  |  137: Species O            10.18916778        8.38364784        4.45932400
  |  138: Species O            13.02651020        5.54622049        4.45932400
  |  139: Species Ti            9.28624964        4.64332536        5.94576831
  |  140: Species Ti           11.60783202        6.96493417        7.43220369
  |  141: Species O            10.70500217        6.06214124        5.94576831
  |  142: Species O            12.51066188        7.86772709        5.94576831
  |  143: Species O            10.18916778        8.38364784        7.43220369
  |  144: Species O            13.02651020        5.54622049        7.43220369
  |  145: Species Ti            9.28637131        9.28642131        0.00000000
  |  146: Species Ti           11.60795369       11.60801619        1.48644431
  |  147: Species O            10.70512384       10.70522326        0.00000000
  |  148: Species O            12.51078354       12.51080912        0.00000000
  |  149: Species O            10.18928945       13.02674379        1.48644431
  |  150: Species O            13.02663186       10.18930252        1.48644431
  |  151: Species Ti            9.28637131        9.28642131        2.97287969
  |  152: Species Ti           11.60795369       11.60801619        4.45932400
  |  153: Species O            10.70512384       10.70522326        2.97287969
  |  154: Species O            12.51078354       12.51080912        2.97287969
  |  155: Species O            10.18928945       13.02674379        4.45932400
  |  156: Species O            13.02663186       10.18930252        4.45932400
  |  157: Species Ti            9.28637131        9.28642131        5.94576831
  |  158: Species Ti           11.60795369       11.60801619        7.43220369
  |  159: Species O            10.70512384       10.70522326        5.94576831
  |  160: Species O            12.51078354       12.51080912        5.94576831
  |  161: Species O            10.18928945       13.02674379        7.43220369
  |  162: Species O            13.02663186       10.18930252        7.43220369

  Lattice parameters for 3D lattice (in Angstroms) :    13.929185   13.929260    8.918648
  Angle(s) between unit vectors (in degrees)       :    90.000000   90.000000   89.996997


  Quantities derived from the lattice vectors (in Angstrom^-1):
  | Reciprocal lattice vector 1:  0.451081 -0.000012  0.000000
  | Reciprocal lattice vector 2: -0.000012  0.451078  0.000000
  | Reciprocal lattice vector 3:  0.000000  0.000000  0.704500
  | Unit cell volume                               :   0.173042E+04  Angstrom^3

  Fractional coordinates:
                         L1                L2                L3
       atom_frac         1.00000000        0.00000000        0.00000000  Ti
       atom_frac         0.16666700        0.16666700        0.16666700  Ti
       atom_frac         0.10185300        0.10185600        0.00000000  F
       atom_frac         0.23148100        0.23147800        0.00000000  O
       atom_frac         0.06481500        0.26852100        0.16666700  O
       atom_frac         0.26851800        0.06481200        0.16666700  O
       atom_frac         1.00000000        0.00000000        0.33333300  Ti
       atom_frac         0.16666700        0.16666700        0.50000000  Ti
       atom_frac         0.10185300        0.10185600        0.33333300  O
       atom_frac         0.23148100        0.23147800        0.33333300  O
       atom_frac         0.06481500        0.26852100        0.50000000  O
       atom_frac         0.26851800        0.06481200        0.50000000  O
       atom_frac         1.00000000        0.00000000        0.66666700  Ti
       atom_frac         0.16666700        0.16666700        0.83333300  Ti
       atom_frac         0.10185300        0.10185600        0.66666700  O
       atom_frac         0.23148100        0.23147800        0.66666700  O
       atom_frac         0.06481500        0.26852100        0.83333300  O
       atom_frac         0.26851800        0.06481200        0.83333300  O
       atom_frac         1.00000000        0.33333300        0.00000000  Ti
       atom_frac         0.16666700        0.50000000        0.16666700  Ti
       atom_frac         0.10185300        0.43518900        0.00000000  O
       atom_frac         0.23148100        0.56481100        0.00000000  O
       atom_frac         0.06481500        0.60185400        0.16666700  O
       atom_frac         0.26851800        0.39814600        0.16666700  O
       atom_frac         1.00000000        0.33333300        0.33333300  Ti
       atom_frac         0.16666700        0.50000000        0.50000000  Ti
       atom_frac         0.10185300        0.43518900        0.33333300  O
       atom_frac         0.23148100        0.56481100        0.33333300  O
       atom_frac         0.06481500        0.60185400        0.50000000  O
       atom_frac         0.26851800        0.39814600        0.50000000  O
       atom_frac         1.00000000        0.33333300        0.66666700  Ti
       atom_frac         0.16666700        0.50000000        0.83333300  Ti
       atom_frac         0.10185300        0.43518900        0.66666700  O
       atom_frac         0.23148100        0.56481100        0.66666700  O
       atom_frac         0.06481500        0.60185400        0.83333300  O
       atom_frac         0.26851800        0.39814600        0.83333300  O
       atom_frac         1.00000000        0.66666700        0.00000000  Ti
       atom_frac         0.16666700        0.83333300        0.16666700  Ti
       atom_frac         0.10185300        0.76852200        0.00000000  O
       atom_frac         0.23148100        0.89814400        0.00000000  O
       atom_frac         0.06481500        0.93518800        0.16666700  O
       atom_frac         0.26851800        0.73147900        0.16666700  O
       atom_frac         1.00000000        0.66666700        0.33333300  Ti
       atom_frac         0.16666700        0.83333300        0.50000000  Ti
       atom_frac         0.10185300        0.76852200        0.33333300  O
       atom_frac         0.23148100        0.89814400        0.33333300  O
       atom_frac         0.06481500        0.93518800        0.50000000  O
       atom_frac         0.26851800        0.73147900        0.50000000  O
       atom_frac         1.00000000        0.66666700        0.66666700  Ti
       atom_frac         0.16666700        0.83333300        0.83333300  Ti
       atom_frac         0.10185300        0.76852200        0.66666700  O
       atom_frac         0.23148100        0.89814400        0.66666700  O
       atom_frac         0.06481500        0.93518800        0.83333300  O
       atom_frac         0.26851800        0.73147900        0.83333300  O
       atom_frac         0.33333300        0.00000000        0.00000000  Ti
       atom_frac         0.50000000        0.16666700        0.16666700  Ti
       atom_frac         0.43518600        0.10185600        0.00000000  O
       atom_frac         0.56481400        0.23147800        0.00000000  O
       atom_frac         0.39814900        0.26852100        0.16666700  O
       atom_frac         0.60185100        0.06481200        0.16666700  O
       atom_frac         0.33333300        0.00000000        0.33333300  Ti
       atom_frac         0.50000000        0.16666700        0.50000000  Ti
       atom_frac         0.43518600        0.10185600        0.33333300  O
       atom_frac         0.56481400        0.23147800        0.33333300  O
       atom_frac         0.39814900        0.26852100        0.50000000  O
       atom_frac         0.60185100        0.06481200        0.50000000  O
       atom_frac         0.33333300        0.00000000        0.66666700  Ti
       atom_frac         0.50000000        0.16666700        0.83333300  Ti
       atom_frac         0.43518600        0.10185600        0.66666700  O
       atom_frac         0.56481400        0.23147800        0.66666700  O
       atom_frac         0.39814900        0.26852100        0.83333300  O
       atom_frac         0.60185100        0.06481200        0.83333300  O
       atom_frac         0.33333300        0.33333300        0.00000000  Ti
       atom_frac         0.50000000        0.50000000        0.16666700  Ti
       atom_frac         0.43518600        0.43518900        0.00000000  O
       atom_frac         0.56481400        0.56481100        0.00000000  O
       atom_frac         0.39814900        0.60185400        0.16666700  O
       atom_frac         0.60185100        0.39814600        0.16666700  O
       atom_frac         0.33333300        0.33333300        0.33333300  Ti
       atom_frac         0.50000000        0.50000000        0.50000000  Ti
       atom_frac         0.43518600        0.43518900        0.33333300  O
       atom_frac         0.56481400        0.56481100        0.33333300  O
       atom_frac         0.39814900        0.60185400        0.50000000  O
       atom_frac         0.60185100        0.39814600        0.50000000  O
       atom_frac         0.33333300        0.33333300        0.66666700  Ti
       atom_frac         0.50000000        0.50000000        0.83333300  Ti
       atom_frac         0.43518600        0.43518900        0.66666700  O
       atom_frac         0.56481400        0.56481100        0.66666700  O
       atom_frac         0.39814900        0.60185400        0.83333300  O
       atom_frac         0.60185100        0.39814600        0.83333300  O
       atom_frac         0.33333300        0.66666700        0.00000000  Ti
       atom_frac         0.50000000        0.83333300        0.16666700  Ti
       atom_frac         0.43518600        0.76852200        0.00000000  O
       atom_frac         0.56481400        0.89814400        0.00000000  O
       atom_frac         0.39814900        0.93518800        0.16666700  O
       atom_frac         0.60185100        0.73147900        0.16666700  O
       atom_frac         0.33333300        0.66666700        0.33333300  Ti
       atom_frac         0.50000000        0.83333300        0.50000000  Ti
       atom_frac         0.43518600        0.76852200        0.33333300  O
       atom_frac         0.56481400        0.89814400        0.33333300  O
       atom_frac         0.39814900        0.93518800        0.50000000  O
       atom_frac         0.60185100        0.73147900        0.50000000  O
       atom_frac         0.33333300        0.66666700        0.66666700  Ti
       atom_frac         0.50000000        0.83333300        0.83333300  Ti
       atom_frac         0.43518600        0.76852200        0.66666700  O
       atom_frac         0.56481400        0.89814400        0.66666700  O
       atom_frac         0.39814900        0.93518800        0.83333300  O
       atom_frac         0.60185100        0.73147900        0.83333300  O
       atom_frac         0.66666700        0.00000000        0.00000000  Ti
       atom_frac         0.83333300        0.16666700        0.16666700  Ti
       atom_frac         0.76851900        0.10185600        0.00000000  O
       atom_frac         0.89814700        0.23147800        0.00000000  O
       atom_frac         0.73148200        0.26852100        0.16666700  O
       atom_frac         0.93518500        0.06481200        0.16666700  O
       atom_frac         0.66666700        0.00000000        0.33333300  Ti
       atom_frac         0.83333300        0.16666700        0.50000000  Ti
       atom_frac         0.76851900        0.10185600        0.33333300  O
       atom_frac         0.89814700        0.23147800        0.33333300  O
       atom_frac         0.73148200        0.26852100        0.50000000  O
       atom_frac         0.93518500        0.06481200        0.50000000  O
       atom_frac         0.66666700        0.00000000        0.66666700  Ti
       atom_frac         0.83333300        0.16666700        0.83333300  Ti
       atom_frac         0.76851900        0.10185600        0.66666700  O
       atom_frac         0.89814700        0.23147800        0.66666700  O
       atom_frac         0.73148200        0.26852100        0.83333300  O
       atom_frac         0.93518500        0.06481200        0.83333300  O
       atom_frac         0.66666700        0.33333300        0.00000000  Ti
       atom_frac         0.83333300        0.50000000        0.16666700  Ti
       atom_frac         0.76851900        0.43518900        0.00000000  O
       atom_frac         0.89814700        0.56481100        0.00000000  O
       atom_frac         0.73148200        0.60185400        0.16666700  O
       atom_frac         0.93518500        0.39814600        0.16666700  O
       atom_frac         0.66666700        0.33333300        0.33333300  Ti
       atom_frac         0.83333300        0.50000000        0.50000000  Ti
       atom_frac         0.76851900        0.43518900        0.33333300  O
       atom_frac         0.89814700        0.56481100        0.33333300  O
       atom_frac         0.73148200        0.60185400        0.50000000  O
       atom_frac         0.93518500        0.39814600        0.50000000  O
       atom_frac         0.66666700        0.33333300        0.66666700  Ti
       atom_frac         0.83333300        0.50000000        0.83333300  Ti
       atom_frac         0.76851900        0.43518900        0.66666700  O
       atom_frac         0.89814700        0.56481100        0.66666700  O
       atom_frac         0.73148200        0.60185400        0.83333300  O
       atom_frac         0.93518500        0.39814600        0.83333300  O
       atom_frac         0.66666700        0.66666700        0.00000000  Ti
       atom_frac         0.83333300        0.83333300        0.16666700  Ti
       atom_frac         0.76851900        0.76852200        0.00000000  O
       atom_frac         0.89814700        0.89814400        0.00000000  O
       atom_frac         0.73148200        0.93518800        0.16666700  O
       atom_frac         0.93518500        0.73147900        0.16666700  O
       atom_frac         0.66666700        0.66666700        0.33333300  Ti
       atom_frac         0.83333300        0.83333300        0.50000000  Ti
       atom_frac         0.76851900        0.76852200        0.33333300  O
       atom_frac         0.89814700        0.89814400        0.33333300  O
       atom_frac         0.73148200        0.93518800        0.50000000  O
       atom_frac         0.93518500        0.73147900        0.50000000  O
       atom_frac         0.66666700        0.66666700        0.66666700  Ti
       atom_frac         0.83333300        0.83333300        0.83333300  Ti
       atom_frac         0.76851900        0.76852200        0.66666700  O
       atom_frac         0.89814700        0.89814400        0.66666700  O
       atom_frac         0.73148200        0.93518800        0.83333300  O
       atom_frac         0.93518500        0.73147900        0.83333300  O

  Slab Identifier: This seems to be a bulk system.
 
  Finished reading input file 'geometry.in'.
 

 
  Consistency checks for stacksize environment parameter are next.
 
  | Maximum stacksize for task 0: unlimited
  | Maximum stacksize for task 1: unlimited
  | Maximum stacksize for task 2: unlimited
  | Maximum stacksize for task 3: unlimited
  | Maximum stacksize for task 4: unlimited
  | Maximum stacksize for task 5: unlimited
  | Maximum stacksize for task 6: unlimited
  | Maximum stacksize for task 7: unlimited
  | Maximum stacksize for task 8: unlimited
  | Maximum stacksize for task 9: unlimited
  | Maximum stacksize for task 10: unlimited
  | Maximum stacksize for task 11: unlimited
  | Maximum stacksize for task 12: unlimited
  | Maximum stacksize for task 13: unlimited
  | Maximum stacksize for task 14: unlimited
  | Maximum stacksize for task 15: unlimited
  | Maximum stacksize for task 16: unlimited
  | Maximum stacksize for task 17: unlimited
  | Maximum stacksize for task 18: unlimited
  | Maximum stacksize for task 19: unlimited
  | Maximum stacksize for task 20: unlimited
  | Maximum stacksize for task 21: unlimited
  | Maximum stacksize for task 22: unlimited
  | Maximum stacksize for task 23: unlimited
  | Maximum stacksize for task 24: unlimited
  | Maximum stacksize for task 25: unlimited
  | Maximum stacksize for task 26: unlimited
  | Maximum stacksize for task 27: unlimited
  | Maximum stacksize for task 28: unlimited
  | Maximum stacksize for task 29: unlimited
  | Maximum stacksize for task 30: unlimited
  | Maximum stacksize for task 31: unlimited
  | Current stacksize for task 0: unlimited
  | Current stacksize for task 1: unlimited
  | Current stacksize for task 2: unlimited
  | Current stacksize for task 3: unlimited
  | Current stacksize for task 4: unlimited
  | Current stacksize for task 5: unlimited
  | Current stacksize for task 6: unlimited
  | Current stacksize for task 7: unlimited
  | Current stacksize for task 8: unlimited
  | Current stacksize for task 9: unlimited
  | Current stacksize for task 10: unlimited
  | Current stacksize for task 11: unlimited
  | Current stacksize for task 12: unlimited
  | Current stacksize for task 13: unlimited
  | Current stacksize for task 14: unlimited
  | Current stacksize for task 15: unlimited
  | Current stacksize for task 16: unlimited
  | Current stacksize for task 17: unlimited
  | Current stacksize for task 18: unlimited
  | Current stacksize for task 19: unlimited
  | Current stacksize for task 20: unlimited
  | Current stacksize for task 21: unlimited
  | Current stacksize for task 22: unlimited
  | Current stacksize for task 23: unlimited
  | Current stacksize for task 24: unlimited
  | Current stacksize for task 25: unlimited
  | Current stacksize for task 26: unlimited
  | Current stacksize for task 27: unlimited
  | Current stacksize for task 28: unlimited
  | Current stacksize for task 29: unlimited
  | Current stacksize for task 30: unlimited
  | Current stacksize for task 31: unlimited
 
  Consistency checks for the contents of control.in are next.
 
  MPI_IN_PLACE appears to work with this MPI implementation.
  | Keeping use_mpi_in_place .true. (see manual).
  Target number of points in a grid batch is not set. Defaulting to  100
  Method for grid partitioning is not set. Defaulting to parallel hash+maxmin partitioning.
  Batch size limit is not set. Defaulting to    200
  By default, will store active basis functions for each batch.
  If in need of memory, prune_basis_once .false. can be used to disable this option.
  communication_type for Hartree potential was not specified.
  Defaulting to calc_hartree .
  Defaulting to Pulay charge density mixer.
  Pulay mixer: Number of relevant iterations not set.
  Defaulting to    8 iterations.
  Pulay mixer: Number of initial linear mixing iterations not set.
  Defaulting to    0 iterations.
  Work space size for distributed Hartree potential not set.
  Defaulting to   0.200000E+03 MB.
  Mixing parameter for charge density mixing has not been set.
  Using default: charge_mix_param =     0.0500.
  The mixing parameter will be adjusted in iteration number     2 of each s.c.f. cycle (i.e., each geometry step).
  Algorithm-dependent basis array size parameters:
  | n_max_pulay                         :        8
  Maximum number of self-consistency iterations not provided.
  Presetting  1000 iterations.
  Presetting      1001 iterations before the initial mixing cycle
  is restarted anyway using the sc_init_iter criterion / keyword.
  Presetting a factor      1.000 between actual scf density residual
  and density convergence criterion sc_accuracy_rho below which sc_init_iter
  takes no effect.
 * No s.c.f. convergence criteria (sc_accuracy_*) were provided in control.in.
 * The run will proceed with a reasonable default guess, but please check whether.
 * the s.c.f. cycles seem to take too much or too little time.
  Calculation of forces was not defined in control.in. No forces will be calculated.
  Geometry relaxation not requested: no relaxation will be performed.
 * Notice: The s.c.f. convergence criterion sc_accuracy_rho was not provided.
 * We used to stop in this case, and ask the user to provide reasonable
 * scf convergence criteria. However, this led some users to employ criteria
 * that led to extremely long run times, e.g., for simple relaxation.
 * We now preset a default value for sc_accuracy_rho if it is not set.
 * You may still wish to check if this setting is too tight or too loose for your needs.
 * Based on n_atoms and forces and force-correction status, FHI-aims chose sc_accuracy_rho =  0.519615E-05 .
  No accuracy limit for integral partition fn. given. Defaulting to  0.1000E-14.
  No threshold value for u(r) in integrations given. Defaulting to  0.1000E-05.
  No occupation type (smearing scheme) given. Defaulting to Gaussian broadening, width =  0.1000E-01 eV.
  The width will be adjusted in iteration number     2 of each s.c.f. cycle (i.e., each geometry step).
  No accuracy for occupation numbers given. Defaulting to  0.1000E-12.
  No threshold value for occupation numbers given. Defaulting to  0.0000E+00.
  No accuracy for fermi level given. Defaulting to  0.1000E-19.
  Maximum # of iterations to find E_F not set. Defaulting to  200.
  Preferred method for the eigenvalue solver ('KS_method') not specified in 'control.in'.
  Defaulting to serial version, LAPACK (via ELSI), since more k-points than CPUs available.
  Will not use alltoall communication since running on < 1024 CPUs.
  Threshold for basis singularities not set.
  Default threshold for basis singularities:  0.1000E-04
  partition_type (choice of integration weights) for integrals was not specified.
  | Using a version of the partition function of Stratmann and coworkers ('stratmann_sparse').
  | At each grid point, the set of atoms used to build the partition table is smoothly restricted to
  | only those atoms whose free-atom density would be non-zero at that grid point.
  Partitioning for Hartree potential was not defined. Using partition_type for integrals.
  | Adjusted default value of keyword multip_moments_threshold to:       0.10000000E-11
  | This value may affect high angular momentum components of the Hartree potential in periodic systems.
  Spin handling was not defined in control.in. Defaulting to unpolarized case.
  No q(lm)/r^(l+1) cutoff set for long-range Hartree potential.
  | Using default value of  0.100000E-09 .
  | Verify using the multipole_threshold keyword.
  Defaulting to new monopole extrapolation.
  Density update method: automatic selection selected.
  Using density matrix based charge density update.
  Using density matrix based charge density update.
  Using packed matrix style: index .
  Defaulting to use time-reversal symmetry for k-point grid.
  Charge integration errors on the 3D integration grid will be compensated
  by explicit normalization and distribution of residual charges.
  Use the "compensate_multipole_errors" flag to change this behaviour.
  Set 'collect_eigenvectors' to be '.true.' for all serial calculations. This is mandatory.
  Set 'collect_eigenvectors' to be '.true.' for KS_method lapack_fast and serial.
  Found potential conflicts with setting 'use_local_index' for this calculation. Will not set it.
 
  Consistency checks for the contents of geometry.in are next.
 

  Range separation radius for Ewald summation (hartree_convergence_parameter):      3.05697892 bohr.
 * Warning: Initial charge and total charge of the system are inconsistent.
 * Selected charge in control.in:     1.0000* Sum of initial charges in geometry.in:     0.0000
  Number of empty states per atom not set in control.in - providing a guess from actual geometry.
  | Total number of empty states used during s.c.f. cycle:      621
  If you use a very high smearing, use empty_states (per atom!) in control.in to increase this value.

  Structure-dependent array size parameters: 
  | Maximum number of distinct radial functions  :       23
  | Maximum number of basis functions            :     3186
  | Number of Kohn-Sham states (occupied + empty):     1647
------------------------------------------------------------
  After read_input_data [GB]:    508.63

  Performing system and environment tests:
  *** Environment variable OMP_NUM_THREADS is not set
  *** For performance reasons you might want to set it to 1
  | Checking for ScaLAPACK...
  | Testing pdtran()...
  | All pdtran() tests passed.
  After prepare_system [GB]:    508.46

------------------------------------------------------------
          Preparing all fixed parts of the calculation.
------------------------------------------------------------
  Determining machine precision:
    2.225073858507201E-308
  Setting up grids for atomic and cluster calculations.

  Creating wave function, potential, and density for free atoms.
  Runtime choices for atomic solver:
  | atomic solver xc        : PBE
  | compute density gradient: 1
  | compute kinetic density : F

  Species: Ti

  List of occupied orbitals and eigenvalues:
    n    l              occ      energy [Ha]    energy [eV]
    1    0           2.0000      -179.959082     -4896.9358
    2    0           2.0000       -19.727662      -536.8170
    3    0           2.0000        -2.283029       -62.1244
    4    0           2.0000        -0.148384        -4.0377
    2    1           6.0000       -16.317278      -444.0157
    3    1           6.0000        -1.409348       -38.3503
    3    2           2.0000        -0.139340        -3.7916


  Species: O

  List of occupied orbitals and eigenvalues:
    n    l              occ      energy [Ha]    energy [eV]
    1    0           2.0000       -18.926989      -515.0296
    2    0           2.0000        -0.880247       -23.9527
    2    1           4.0000        -0.331514        -9.0210


  Species: F

  List of occupied orbitals and eigenvalues:
    n    l              occ      energy [Ha]    energy [eV]
    1    0           2.0000       -24.399611      -663.9472
    2    0           2.0000        -1.098702       -29.8972
    2    1           5.0000        -0.408210       -11.1080


  Adding cutoff potential to free-atom effective potential.
  Creating fixed part of basis set: Ionic, confined, hydrogenic.
 
  Ti                   ion:

  List of free ionic orbitals and eigenvalues:
    n    l      energy [Ha]    energy [eV]
    1    0      -180.819616     -4920.3521
    2    0       -20.608761      -560.7929
    3    0        -3.115729       -84.7833
    4    0        -0.697188       -18.9715
    2    1       -17.196209      -467.9327
    3    1        -2.231296       -60.7167
    3    2        -0.911363       -24.7995


  List of ionic basis orbitals and eigenvalues:
    n    l      energy [Ha]    energy [eV]    outer radius [A]
    4    1        -0.517739       -14.0884       4.592117
    4    0        -0.696824       -18.9615       4.536321

 
  Ti                   hydrogenic:
 
  List of hydrogenic basis orbitals: 
    n    l      effective z      eigenvalue [eV]  inner max. [A]     outer max. [A]     outer radius [A]   
    4    3         8.000000       -54.4222           1.059019           1.059019           4.267343
    3    2         2.700000       -10.7798           1.726925           1.726925           4.592117
 
 
  O                    hydrogenic:
 
  List of hydrogenic basis orbitals: 
    n    l      effective z      eigenvalue [eV]  inner max. [A]     outer max. [A]     outer radius [A]   
    2    1         1.800000       -10.9749           1.164242           1.164242           4.578029
    3    2         7.600000       -87.3180           0.624125           0.624125           3.251020
    3    0         6.400000       -61.9207           0.061167           1.081902           4.001998
 
 
  F                    hydrogenic:
 
  List of hydrogenic basis orbitals: 
    n    l      effective z      eigenvalue [eV]  inner max. [A]     outer max. [A]     outer radius [A]   
    2    1         1.700000        -9.7616           1.243167           1.243167           4.598524
    3    2         7.400000       -82.7828           0.642437           0.642437           3.305741
    3    0         6.800000       -69.9026           0.057798           1.022307           3.781556
 
  Creating atomic-like basis functions for current effective potential.

  Species Ti                  :

  List of atomic basis orbitals and eigenvalues:
    n    l      energy [Ha]    energy [eV]    outer radius [A]
    1    0      -179.959082     -4896.9358       0.490254
    2    0       -19.727662      -536.8170       1.491292
    3    0        -2.283029       -62.1244       4.014314
    4    0        -0.148384        -4.0377       4.592117
    2    1       -16.317278      -444.0157       1.585290
    3    1        -1.409348       -38.3503       4.267343
    3    2        -0.139340        -3.7916       4.536321


  Species O                   :

  List of atomic basis orbitals and eigenvalues:
    n    l      energy [Ha]    energy [eV]    outer radius [A]
    1    0       -18.926989      -515.0296       1.415765
    2    0        -0.880247       -23.9527       4.413171
    2    1        -0.331514        -9.0210       4.522403


  Species F                   :

  List of atomic basis orbitals and eigenvalues:
    n    l      energy [Ha]    energy [eV]    outer radius [A]
    1    0       -24.399611      -663.9472       1.258458
    2    0        -1.098702       -29.8972       4.325857
    2    1        -0.408210       -11.1080       4.487453

  Assembling full basis from fixed parts.
  | Species Ti :   atomic orbital   1 s accepted.
  | Species Ti :   atomic orbital   2 s accepted.
  | Species Ti :   atomic orbital   3 s accepted.
  | Species Ti :    ionic orbital   4 s accepted.
  | Species Ti :   atomic orbital   4 s accepted.
  | Species Ti :   atomic orbital   2 p accepted.
  | Species Ti :   atomic orbital   3 p accepted.
  | Species Ti :    ionic orbital   4 p accepted.
  | Species Ti :   atomic orbital   3 d accepted.
  | Species Ti :    hydro orbital   3 d accepted.
  | Species Ti :    hydro orbital   4 f accepted.
  | Species O :   atomic orbital   1 s accepted.
  | Species O :    hydro orbital   3 s accepted.
  | Species O :   atomic orbital   2 s accepted.
  | Species O :   atomic orbital   2 p accepted.
  | Species O :    hydro orbital   2 p accepted.
  | Species O :    hydro orbital   3 d accepted.
  | Species F :   atomic orbital   1 s accepted.
  | Species F :    hydro orbital   3 s accepted.
  | Species F :   atomic orbital   2 s accepted.
  | Species F :   atomic orbital   2 p accepted.
  | Species F :    hydro orbital   2 p accepted.
  | Species F :    hydro orbital   3 d accepted.
 
  Basis size parameters after reduction:
  | Total number of radial functions:       23
  | Total number of basis functions :     3186
 
  Per-task memory consumption for arrays in subroutine allocate_ext:
  |           6.188792MB.
  Testing on-site integration grid accuracy.
  |  Species  Function  <phi|h_atom|phi> (log., in eV)  <phi|h_atom|phi> (rad., in eV)
           1        1              -4896.9357674450              -4896.9322838106
           1        2               -536.8170048508               -536.8169722776
           1        3                -62.1243896260                -62.1243889401
           1        4                 -3.2653235630                 -3.2692838824
           1        5                  6.7987747276                  6.5460721871 ***
           1        6               -444.0157161949               -444.0157165643
           1        7                -38.3503235548                -38.3503234985
           1        8                  0.2923930877                  0.2745948114
           1        9                 -3.7933400649                 -3.7959244171
           1       10                  6.3288803616                  6.2510614935 ***
           1       11                 27.8451455747                 27.8452636415
           2       12               -515.0295626295               -515.0294562869
           2       13                 15.1698434419                 15.1699322205
           2       14                -21.6038822678                -21.6039118108
           2       15                 -9.0211123393                 -9.0212703513
           2       16                  8.3047696391                  8.2854840999
           2       17                 45.8428042125                 45.8427461223
           3       18               -663.9471986398               -663.9470363156
           3       19                 16.8514011578                 16.8512525340
           3       20                -28.4490593856                -28.4490661455
           3       21                -11.1080115307                -11.1080620174
           3       22                  7.1940182175                  7.1685154136
           3       23                 44.8544281765                 44.8543763625
 * Note: Onsite integrals marked "***" above are less accurate than
 * onsite_accuracy_threshold =    0.03000 eV. Usually, this is harmless.
 * When in doubt, tighten the "radial" and/or "radial_multiplier" flags to check.

  Preparing densities etc. for the partition functions (integrals / Hartree potential).

  Preparations completed.
  max(cpu_time)          :      0.363 s.
  Wall clock time (cpu1) :      0.361 s.
------------------------------------------------------------
  After prepare_scf [GB]:    505.40

  Initializing index lists of integration centers etc. from given atomic structure:
  Mapping all atomic coordinates to central unit cell.

  Initializing the k-points
  Using symmetry for reducing the k-points
  | k-points reduced from:       96 to       52
  | Number of k-points                             :        52
  The eigenvectors in the calculations are COMPLEX.
  | K-points in task   0:         1
  | K-points in task   1:         2
  | K-points in task   2:         2
  | K-points in task   3:         2
  | K-points in task   4:         2
  | K-points in task   5:         2
  | K-points in task   6:         2
  | K-points in task   7:         2
  | K-points in task   8:         2
  | K-points in task   9:         2
  | K-points in task  10:         2
  | K-points in task  11:         2
  | K-points in task  12:         2
  | K-points in task  13:         2
  | K-points in task  14:         2
  | K-points in task  15:         2
  | K-points in task  16:         2
  | K-points in task  17:         2
  | K-points in task  18:         2
  | K-points in task  19:         2
  | K-points in task  20:         2
  | K-points in task  21:         1
  | K-points in task  22:         1
  | K-points in task  23:         1
  | K-points in task  24:         1
  | K-points in task  25:         1
  | K-points in task  26:         1
  | K-points in task  27:         1
  | K-points in task  28:         1
  | K-points in task  29:         1
  | K-points in task  30:         1
  | K-points in task  31:         1
  | Number of basis functions in the Hamiltonian integrals :     14715
  | Number of basis functions in a single unit cell        :      3186
  | Number of centers in hartree potential         :      3246
  | Number of centers in hartree multipole         :      2337
  | Number of centers in electron density summation:      1858
  | Number of centers in basis integrals           :      1957
  | Number of centers in integrals                 :       927
  | Number of centers in hamiltonian               :      1886
  | Consuming         22 KiB for k_phase.
  | Number of super-cells (origin) [n_cells]                     :         125
  | Number of super-cells (after PM_index) [n_cells]             :          28
  | Number of super-cells in hamiltonian [n_cells_in_hamiltonian]:          28
  | Size of matrix packed + index [n_hamiltonian_matrix_size] :     7154089
  After initialize_bc_dependent_lists [GB]:    505.01

------------------------------------------------------------
          Begin self-consistency loop: Initialization.

          Date     :  20250123, Time     :  114254.424
------------------------------------------------------------
  Available memory per node after initialize_hartree_non_periodic_ewald [GB]:    505.01
  | Estimated reciprocal-space cutoff momentum G_max:         3.08889189 bohr^-1 .
  | Reciprocal lattice points for long-range Hartree potential:    5796
  Available memory per node after initialize_recip_hartree_potential [GB]:    505.01
  Available memory per node after initialize_scalapack [GB]:    505.01
  Available memory per node after aims_elsi_init_scf [GB]:    505.01
  Available memory per node after initialize_fixed_grids [GB]:    505.01
  Partitioning the integration grid into batches with parallel hashing+maxmin method.
  | Number of batches:    16333
  | Maximal batch size:     125
  | Minimal batch size:      58
  | Average batch size:      63.436
  | Standard deviation of batch sizes:       4.174

  Integration load balanced across    32 MPI tasks.
  Work distribution over tasks is as follows:
  Task     0 has      32405 integration points.
  Task     1 has      32377 integration points.
  Task     2 has      32350 integration points.
  Task     3 has      32413 integration points.
  Task     4 has      32406 integration points.
  Task     5 has      32374 integration points.
  Task     6 has      32376 integration points.
  Task     7 has      32348 integration points.
  Task     8 has      32350 integration points.
  Task     9 has      32357 integration points.
  Task    10 has      32412 integration points.
  Task    11 has      32356 integration points.
  Task    12 has      32354 integration points.
  Task    13 has      32408 integration points.
  Task    14 has      32374 integration points.
  Task    15 has      32413 integration points.
  Task    16 has      32373 integration points.
  Task    17 has      32366 integration points.
  Task    18 has      32376 integration points.
  Task    19 has      32348 integration points.
  Task    20 has      32379 integration points.
  Task    21 has      32408 integration points.
  Task    22 has      32368 integration points.
  Task    23 has      32415 integration points.
  Task    24 has      32407 integration points.
  Task    25 has      32356 integration points.
  Task    26 has      32348 integration points.
  Task    27 has      32349 integration points.
  Task    28 has      32405 integration points.
  Task    29 has      32380 integration points.
  Task    30 has      32408 integration points.
  Task    31 has      32347 integration points.
  Available memory per node after partition_grid [GB]:    505.02
  Initializing partition tables, free-atom densities, potentials, etc. across the integration grid (initialize_grid_storage).
  | initialize_grid_storage: Actual outermost partition radius vs. multipole_radius_free
  | (-- VB: in principle, multipole_radius_free should be larger, hence this output)
  | Species        1: Confinement radius =              4.999999999999999 AA, multipole_radius_free =              5.002391649902235 AA.
  | Species        1: outer_partition_radius set to              5.002391649902235 AA .
  | Species        2: Confinement radius =              4.999999999999999 AA, multipole_radius_free =              5.048384829883283 AA.
  | Species        2: outer_partition_radius set to              5.048384829883283 AA .
  | Species        3: Confinement radius =              4.999999999999999 AA, multipole_radius_free =              5.009370088163274 AA.
  | Species        3: outer_partition_radius set to              5.009370088163274 AA .
  | The sparse table of interatomic distances needs       6248.58 kbyte instead of     30638.79 kbyte of memory.
  | Net number of integration points:  1036106
  | of which are non-zero points    :   852166
[...]
  |    27        8.622588       -0.622588        3.847902        4.764872        0.009814
  |    28        8.619905       -0.619905        3.848230        4.761821        0.009854
  |    29        8.620755       -0.620755        3.848100        4.762819        0.009835
  |    30        8.620779       -0.620779        3.848245        4.762650        0.009884
  |    31       20.741002        1.258998        5.962079       12.507594        2.126641        0.144689
  |    32       20.743345        1.256655        5.962377       12.508090        2.128111        0.144767
  |    33        8.622588       -0.622588        3.847902        4.764872        0.009814
  |    34        8.619905       -0.619905        3.848230        4.761821        0.009854
  |    35        8.620743       -0.620743        3.848076        4.762828        0.009839
  |    36        8.620851       -0.620851        3.848155        4.762803        0.009893
  |    37       20.743363        1.256637        5.962400       12.508082        2.128115        0.144766
  |    38       20.744281        1.255719        5.963239       12.507178        2.129206        0.144657
  |    39        8.619955       -0.619955        3.848264        4.761815        0.009876
  |    40        8.628676       -0.628676        3.847119        4.771695        0.009863
  |    41        8.625291       -0.625291        3.848398        4.766856        0.010037
  |    42        8.620946       -0.620946        3.847962        4.763168        0.009816
  |    43       20.743020        1.256980        5.962419       12.508072        2.127765        0.144764
  |    44       20.742404        1.257596        5.962132       12.507797        2.127708        0.144768
  |    45        8.619907       -0.619907        3.848329        4.761711        0.009867
  |    46        8.621908       -0.621908        3.847895        4.764161        0.009851
  |    47        8.618106       -0.618106        3.848371        4.759815        0.009920
  |    48        8.621232       -0.621232        3.847994        4.763420        0.009819
  |    49       20.743020        1.256980        5.962419       12.508072        2.127765        0.144764
  |    50       20.744281        1.255719        5.963239       12.507178        2.129206        0.144657
  |    51        8.619907       -0.619907        3.848329        4.761711        0.009867
  |    52        8.621908       -0.621908        3.847895        4.764161        0.009851
  |    53        8.625291       -0.625291        3.848398        4.766856        0.010037
  |    54        8.620946       -0.620946        3.847962        4.763168        0.009816
  |    55       20.752991        1.247009        5.964150       12.509550        2.134511        0.144780
  |    56       20.743345        1.256655        5.962377       12.508090        2.128111        0.144767
  |    57        8.622659       -0.622659        3.847830        4.765015        0.009814
  |    58        8.619970       -0.619970        3.848211        4.761906        0.009853
  |    59        8.620850       -0.620850        3.848155        4.762802        0.009893
  |    60        8.620743       -0.620743        3.848076        4.762828        0.009839
  |    61       20.741002        1.258998        5.962079       12.507594        2.126641        0.144689
  |    62       20.742832        1.257168        5.962484       12.508029        2.127563        0.144756
  |    63        8.622589       -0.622589        3.847902        4.764873        0.009814
  |    64        8.619905       -0.619905        3.848230        4.761821        0.009854
  |    65        8.620779       -0.620779        3.848245        4.762650        0.009884
  |    66        8.620755       -0.620755        3.848100        4.762819        0.009835
  |    67       20.741002        1.258998        5.962079       12.507594        2.126641        0.144689
  |    68       20.743345        1.256655        5.962377       12.508090        2.128111        0.144767
  |    69        8.622589       -0.622589        3.847902        4.764873        0.009814
  |    70        8.619905       -0.619905        3.848230        4.761821        0.009854
  |    71        8.620850       -0.620850        3.848155        4.762802        0.009893
  |    72        8.620743       -0.620743        3.848076        4.762828        0.009839
  |    73       20.745539        1.254461        5.962196       12.507347        2.131321        0.144675
  |    74       20.743102        1.256898        5.962433       12.508371        2.127519        0.144779
  |    75        8.619978       -0.619978        3.847914        4.762263        0.009801
  |    76        8.619749       -0.619749        3.848191        4.761720        0.009838
  |    77        8.620317       -0.620317        3.848128        4.762344        0.009846
  |    78        8.620318       -0.620318        3.848128        4.762344        0.009846
  |    79       20.744372        1.255628        5.962260       12.507637        2.129781        0.144693
  |    80       20.743171        1.256829        5.962436       12.508312        2.127638        0.144785
  |    81        8.620513       -0.620513        3.847953        4.762752        0.009809
  |    82        8.619771       -0.619771        3.848186        4.761744        0.009841
  |    83        8.620291       -0.620291        3.848131        4.762313        0.009847
  |    84        8.620291       -0.620291        3.848131        4.762314        0.009847
  |    85       20.744372        1.255628        5.962260       12.507637        2.129781        0.144693
  |    86       20.743102        1.256898        5.962433       12.508371        2.127519        0.144779
  |    87        8.620513       -0.620513        3.847953        4.762752        0.009809
  |    88        8.619771       -0.619771        3.848186        4.761744        0.009841
  |    89        8.620317       -0.620317        3.848128        4.762344        0.009846
  |    90        8.620318       -0.620318        3.848128        4.762344        0.009846
  |    91       20.743235        1.256765        5.962422       12.508256        2.127789        0.144768
  |    92       20.743472        1.256528        5.962344       12.508085        2.128267        0.144776
  |    93        8.620865       -0.620865        3.848093        4.762923        0.009849
  |    94        8.620879       -0.620879        3.848077        4.762959        0.009843
  |    95        8.616828       -0.616828        3.848542        4.758406        0.009879
  |    96        8.620458       -0.620458        3.848071        4.762547        0.009840
  |    97       20.743064        1.256936        5.962436       12.508192        2.127666        0.144769
  |    98       20.743357        1.256643        5.962367       12.508091        2.128126        0.144773
  |    99        8.620761       -0.620761        3.848107        4.762806        0.009848
  |   100        8.620879       -0.620879        3.848089        4.762948        0.009843
  |   101        8.616292       -0.616292        3.848562        4.757850        0.009880
  |   102        8.620479       -0.620479        3.848078        4.762562        0.009839
  |   103       20.743064        1.256936        5.962436       12.508192        2.127666        0.144769
  |   104       20.743472        1.256528        5.962344       12.508085        2.128267        0.144776
  |   105        8.620761       -0.620761        3.848107        4.762806        0.009848
  |   106        8.620879       -0.620879        3.848089        4.762948        0.009843
  |   107        8.616828       -0.616828        3.848542        4.758406        0.009879
  |   108        8.620458       -0.620458        3.848071        4.762547        0.009840
  |   109       20.743363        1.256637        5.962400       12.508082        2.128115        0.144766
  |   110       20.744281        1.255719        5.963239       12.507178        2.129206        0.144657
  |   111        8.619954       -0.619954        3.848264        4.761814        0.009876
  |   112        8.628679       -0.628679        3.847119        4.771698        0.009863
  |   113        8.620946       -0.620946        3.847962        4.763168        0.009816
  |   114        8.625291       -0.625291        3.848398        4.766855        0.010038
  |   115       20.743020        1.256980        5.962419       12.508072        2.127765        0.144764
  |   116       20.742404        1.257596        5.962132       12.507797        2.127708        0.144768
  |   117        8.619907       -0.619907        3.848329        4.761711        0.009867
  |   118        8.621908       -0.621908        3.847895        4.764162        0.009851
  |   119        8.621233       -0.621233        3.847994        4.763420        0.009819
  |   120        8.618105       -0.618105        3.848371        4.759814        0.009920
  |   121       20.743020        1.256980        5.962419       12.508072        2.127765        0.144764
  |   122       20.744281        1.255719        5.963239       12.507178        2.129206        0.144657
  |   123        8.619907       -0.619907        3.848329        4.761711        0.009867
  |   124        8.621908       -0.621908        3.847895        4.764162        0.009851
  |   125        8.620946       -0.620946        3.847962        4.763168        0.009816
  |   126        8.625291       -0.625291        3.848398        4.766855        0.010038
  |   127       20.743235        1.256765        5.962422       12.508256        2.127789        0.144768
  |   128       20.743472        1.256528        5.962344       12.508085        2.128267        0.144776
  |   129        8.620865       -0.620865        3.848093        4.762922        0.009849
  |   130        8.620879       -0.620879        3.848077        4.762959        0.009843
  |   131        8.620458       -0.620458        3.848071        4.762547        0.009840
  |   132        8.616828       -0.616828        3.848542        4.758406        0.009879
  |   133       20.743064        1.256936        5.962436       12.508192        2.127666        0.144769
  |   134       20.743357        1.256643        5.962367       12.508091        2.128126        0.144773
  |   135        8.620761       -0.620761        3.848107        4.762806        0.009848
  |   136        8.620879       -0.620879        3.848089        4.762948        0.009843
  |   137        8.620479       -0.620479        3.848078        4.762562        0.009839
  |   138        8.616292       -0.616292        3.848562        4.757850        0.009880
  |   139       20.743064        1.256936        5.962436       12.508192        2.127666        0.144769
  |   140       20.743472        1.256528        5.962344       12.508085        2.128267        0.144776
  |   141        8.620761       -0.620761        3.848107        4.762806        0.009848
  |   142        8.620879       -0.620879        3.848089        4.762948        0.009843
  |   143        8.620458       -0.620458        3.848071        4.762547        0.009840
  |   144        8.616828       -0.616828        3.848542        4.758406        0.009879
  |   145       20.743341        1.256659        5.962347       12.508185        2.128025        0.144784
  |   146       20.743811        1.256189        5.962782       12.508721        2.127536        0.144772
  |   147        8.618769       -0.618769        3.848393        4.760539        0.009837
  |   148        8.614662       -0.614662        3.847155        4.757740        0.009767
  |   149        8.621663       -0.621663        3.847959        4.763864        0.009840
  |   150        8.621663       -0.621663        3.847959        4.763864        0.009840
  |   151       20.743221        1.256779        5.962353       12.508198        2.127889        0.144780
  |   152       20.742476        1.257524        5.962387       12.508204        2.127114        0.144771
  |   153        8.618348       -0.618348        3.848344        4.760147        0.009856
  |   154        8.621883       -0.621883        3.847928        4.764173        0.009782
  |   155        8.621077       -0.621077        3.848036        4.763199        0.009842
  |   156        8.621077       -0.621077        3.848036        4.763199        0.009842
  |   157       20.743221        1.256779        5.962353       12.508198        2.127889        0.144780
  |   158       20.743811        1.256189        5.962782       12.508721        2.127536        0.144772
  |   159        8.618348       -0.618348        3.848344        4.760147        0.009856
  |   160        8.621883       -0.621883        3.847928        4.764173        0.009782
  |   161        8.621663       -0.621663        3.847959        4.763864        0.009840
  |   162        8.621663       -0.621663        3.847959        4.763864        0.009840
  |
  | Total     2052.000000        1.000000
 
  Writing Mulliken decomposition to disk ...

  Mulliken analysis                                       :  max(cpu_time)    wall_clock(cpu1)
  | Time for Mulliken analysis                            :        173.668             173.724
  | Total time for Mulliken analysis                      :        173.668             173.724
------------------------------------------------------------

------------------------------------------------------------------------------
  Final output of selected total energy values:

  The following output summarizes some interesting total energy values
  at the end of a run (AFTER all relaxation, molecular dynamics, etc.).

  | Total energy of the DFT / Hartree-Fock s.c.f. calculation      :       -1476669.185488634 eV
  | Final zero-broadening corrected energy (caution - metals only) :       -1476669.185488634 eV
  | For reference only, the value of 1 Hartree used in FHI-aims is :             27.211384500 eV
  | For reference only, the overall average (free atom contribution
  | + realspace contribution) of the electrostatic potential after
  | s.c.f. convergence is                                          :            -17.067140443 eV

  Before relying on these values, please be sure to understand exactly which
  total energy value is referred to by a given number. Different objects may
  all carry the same name 'total energy'. Definitions:

  Total energy of the DFT / Hartree-Fock s.c.f. calculation:
  | Note that this energy does not include ANY quantities calculated after the
  | s.c.f. cycle, in particular not ANY RPA, MP2, etc. many-body perturbation terms.
  | Scalar relativistic effects have been included in the 'scaled ZORA' approximation.

  Final zero-broadening corrected energy:
  | For metallic systems only, a broadening of the occupation numbers at the Fermi
  | level can be extrapolated back to zero broadening by an electron-gas inspired
  | formula. For all systems that are not real metals, this value can be
  | meaningless and should be avoided.

------------------------------------------------------------------------------
  Methods described in the following list of references were used in this FHI-aims run.
  If you publish the results, please make sure to cite these reference if they apply.
  FHI-aims is an academic code, and for our developers (often, Ph.D. students
  and postdocs), scientific credit in the community is essential.
  Thank you for helping us!

  For any use of FHI-aims, please cite:

    Volker Blum, Ralf Gehrke, Felix Hanke, Paula Havu, Ville Havu,
    Xinguo Ren, Karsten Reuter, and Matthias Scheffler
    'Ab initio molecular simulations with numeric atom-centered orbitals'
    Computer Physics Communications 180, 2175-2196 (2009)
    http://doi.org/10.1016/j.cpc.2009.06.022


  The provided symmetry information was generated with SPGlib:

    Atsushi Togo, Yusuke Seto, Dimitar Pashov
    SPGlib 1.7.3 obtained from http://spglib.sourceforge.net
    Licence: New BSD license
    Copyright (C) 2008 Atsushi Togo


  The ELSI infrastructure was used in your run to solve the Kohn-Sham electronic structure.
  Please check out https://wordpress.elsi-interchange.org to learn more.
  If scalability is important for your project, please acknowledge ELSI by citing:

    V. W-z. Yu, F. Corsetti, A. Garcia, W. P. Huhn, M. Jacquelin, W. Jia,
    B. Lange, L. Lin, J. Lu, W. Mi, A. Seifitokaldani, A. Vazquez-Mayagoitia,
    C. Yang, H. Yang, and V. Blum
    'ELSI: A unified software interface for Kohn-Sham electronic structure solvers'
    Computer Physics Communications 222, 267-285 (2018).
    http://doi.org/10.1016/j.cpc.2017.09.007


  For the real-space grid partitioning and parallelization used in this calculation, please cite:

    Ville Havu, Volker Blum, Paula Havu, and Matthias Scheffler,
    'Efficient O(N) integration for all-electron electronic structure calculation'
    'using numerically tabulated basis functions'
    Journal of Computational Physics 228, 8367-8379 (2009).
    http://doi.org/10.1016/j.jcp.2009.08.008

  Of course, there are many other important community references, e.g., those cited in the
  above references. Our list is limited to references that describe implementations in the
  FHI-aims code. The reason is purely practical (length of this list) - please credit others as well.

------------------------------------------------------------
          Leaving FHI-aims.
          Date     :  20250123, Time     :  134443.959

          Computational steps:
          | Number of self-consistency cycles          :           19
          | Number of SCF (re)initializations          :            1

          Detailed time accounting                     :  max(cpu_time)    wall_clock(cpu1)
          | Total time                                  :     7309.674 s        7310.155 s
          | Preparation time                            :        0.363 s           0.361 s
          | Boundary condition initalization            :        0.179 s           0.179 s
          | Grid partitioning                           :        1.220 s           1.220 s
          | Preloading free-atom quantities on grid     :        4.828 s           4.828 s
          | Free-atom superposition energy              :        0.717 s           0.717 s
          | Total time for integrations                 :      454.528 s         454.542 s
          | Total time for solution of K.-S. equations  :     4581.853 s        4582.370 s
          | Total time for density update               :      600.614 s         600.648 s
          | Total time for mixing                       :        0.346 s           0.345 s
          | Total time for Hartree multipole update     :        0.416 s           0.415 s
          | Total time for Hartree multipole sum        :       31.204 s          31.206 s
          | Total time for total energy evaluation      :        0.092 s           0.105 s
          | Total time for scaled ZORA corrections      :     1459.113 s        1459.177 s
          | Total time for Mulliken analysis            :      173.719 s         173.724 s

          Partial memory accounting:
          | Residual value for overall tracked memory usage across tasks:     0.000000 MB (should be 0.000000 MB)
          | Peak values for overall tracked memory usage:
          |   Minimum:      854.309 MB (on task 31 after allocating eval_tmp)
          |   Maximum:      934.414 MB (on task  3 after allocating eval_tmp)
          |   Average:      904.369 MB
          | Largest tracked array allocation:
          |   Minimum:      154.886 MB (KS_eigenvector_complex on task  0)
          |   Maximum:      160.136 MB (KS_eigenvector_complex on task  1)
          |   Average:      158.167 MB
          Note:  These values currently only include a subset of arrays which are explicitly tracked.
          The "true" memory usage will be greater.

          Have a nice day.
------------------------------------------------------------
