------------------------------------------------------------
          Invoking FHI-aims ...

          When using FHI-aims, please cite the following reference:

            Volker Blum, Ralf Gehrke, Felix Hanke, Paula Havu,
            Ville Havu, Xinguo Ren, Karsten Reuter, and Matthias Scheffler,
            'Ab Initio Molecular Simulations with Numeric Atom-Centered Orbitals',
            Computer Physics Communications 180, 2175-2196 (2009)

          In addition, many other developments in FHI-aims are likely important for
          your particular application. If so, please cite them. A partial list of references
          is written at the end of this file. Thank you for giving credit to the authors
          of these developments.

          For general information about FHI-aims please find us at

            https://fhi-aims.org

          Online tutorials can be found at

            https://fhi-aims-club.gitlab.io/tutorials/tutorials-overview/

          For any questions about FHI-aims, please visit our slack channel at

            https://fhi-aims.slack.com

          and our main development and support site at

            https://aims-git.rz-berlin.mpg.de .

          The latter site, in particular, has a wiki to collect information, as well
          as an issue tracker to log discussions, suggest improvements, and report issues
          or bugs. https://aims-git.rz-berlin.mpg.de is also the main development site
          of the project and all new and updated code versions can be obtained there.
          Please send an email to aims-coordinators@fhi-berlin.mpg.de and we will add
          you to these sites. They are for you and everyone is welcome there.

------------------------------------------------------------



  Date     :  20241214, Time     :  175125.377
  Time zero on CPU 1             :   0.536583000000000E+00  s.
  Internal wall clock time zero  :           503430685.377  s.

  FHI-aims created a unique identifier for this run for later identification
  aims_uuid : 1C99EBD6-E8BF-471E-A735-1C6A5A51BAC8

  Build configuration of the current instance of FHI-aims
  -------------------------------------------------------
  FHI-aims version      : 240605
  Commit number         : b001b2e18
  CMake host system     : Linux-6.5.0-41-generic
  CMake version         : 3.22.1
  Fortran compiler      : /opt/intel/oneapi/mpi/2021.12/bin/mpiifort (IntelLLVM) version 2024.1.0
  Fortran compiler flags: -fc=ifx -O3 -ip -fp-model precise
  C compiler            : /opt/intel/oneapi/mpi/2021.12/bin/mpiicc (IntelLLVM) version 2024.1.0
  C compiler flags      : -cc=icx -O3 -ip -fp-model precise -std=gnu99
  C++ compiler          : /opt/intel/oneapi/mpi/2021.12/bin/mpiicpc (IntelLLVM) version 2024.1.0
  C++ compiler flags    : -cxx=icpx -O3 -ip -fp-model precise -std=c++11
  HIP compiler          :
  HIP compiler flags    :
  HIP GPU arch          :
  Using MPI
  Using ScaLAPACK
  Using LibXC
  Using i-PI
  Using RLSY
  Linking against: /opt/intel/oneapi/mkl/2024.1/lib/intel64/libmkl_intel_lp64.so
                   /opt/intel/oneapi/mkl/2024.1/lib/intel64/libmkl_sequential.so
                   /opt/intel/oneapi/mkl/2024.1/lib/intel64/libmkl_core.so
                   /opt/intel/oneapi/mkl/2024.1/lib/intel64/libmkl_blacs_intelmpi_lp64.so
                   /opt/intel/oneapi/mkl/2024.1/lib/intel64/libmkl_scalapack_lp64.so
                   /opt/intel/oneapi/mkl/2024.1/lib/intel64/libmkl_core.so

  Using       64 parallel tasks.
  Task        0 on host RSL-arvutus reporting.
  Task        1 on host RSL-arvutus reporting.
  Task        2 on host RSL-arvutus reporting.
  Task        3 on host RSL-arvutus reporting.
  Task        4 on host RSL-arvutus reporting.
  Task        5 on host RSL-arvutus reporting.
  Task        6 on host RSL-arvutus reporting.
  Task        7 on host RSL-arvutus reporting.
  Task        8 on host RSL-arvutus reporting.
  Task        9 on host RSL-arvutus reporting.
  Task       10 on host RSL-arvutus reporting.
  Task       11 on host RSL-arvutus reporting.
  Task       12 on host RSL-arvutus reporting.
  Task       13 on host RSL-arvutus reporting.
  Task       14 on host RSL-arvutus reporting.
  Task       15 on host RSL-arvutus reporting.
  Task       16 on host RSL-arvutus reporting.
  Task       17 on host RSL-arvutus reporting.
  Task       18 on host RSL-arvutus reporting.
  Task       19 on host RSL-arvutus reporting.
  Task       20 on host RSL-arvutus reporting.
  Task       21 on host RSL-arvutus reporting.
  Task       22 on host RSL-arvutus reporting.
  Task       23 on host RSL-arvutus reporting.
  Task       24 on host RSL-arvutus reporting.
  Task       25 on host RSL-arvutus reporting.
  Task       26 on host RSL-arvutus reporting.
  Task       27 on host RSL-arvutus reporting.
  Task       28 on host RSL-arvutus reporting.
  Task       29 on host RSL-arvutus reporting.
  Task       30 on host RSL-arvutus reporting.
  Task       31 on host RSL-arvutus reporting.
  Task       32 on host RSL-arvutus reporting.
  Task       33 on host RSL-arvutus reporting.
  Task       34 on host RSL-arvutus reporting.
  Task       35 on host RSL-arvutus reporting.
  Task       36 on host RSL-arvutus reporting.
  Task       37 on host RSL-arvutus reporting.
  Task       38 on host RSL-arvutus reporting.
  Task       39 on host RSL-arvutus reporting.
  Task       40 on host RSL-arvutus reporting.
  Task       41 on host RSL-arvutus reporting.
  Task       42 on host RSL-arvutus reporting.
  Task       43 on host RSL-arvutus reporting.
  Task       44 on host RSL-arvutus reporting.
  Task       45 on host RSL-arvutus reporting.
  Task       46 on host RSL-arvutus reporting.
  Task       47 on host RSL-arvutus reporting.
  Task       48 on host RSL-arvutus reporting.
  Task       49 on host RSL-arvutus reporting.
  Task       50 on host RSL-arvutus reporting.
  Task       51 on host RSL-arvutus reporting.
  Task       52 on host RSL-arvutus reporting.
  Task       53 on host RSL-arvutus reporting.
  Task       54 on host RSL-arvutus reporting.
  Task       55 on host RSL-arvutus reporting.
  Task       56 on host RSL-arvutus reporting.
  Task       57 on host RSL-arvutus reporting.
  Task       58 on host RSL-arvutus reporting.
  Task       59 on host RSL-arvutus reporting.
  Task       60 on host RSL-arvutus reporting.
  Task       61 on host RSL-arvutus reporting.
  Task       62 on host RSL-arvutus reporting.
  Task       63 on host RSL-arvutus reporting.

  Memory overcommitment is allowed on your operating system.

  Obtaining array dimensions for all initial allocations:
  
  -----------------------------------------------------------------------
  Parsing control.in (first pass over file, find array dimensions only).
  The contents of control.in will be repeated verbatim below
  unless switched off by setting 'verbatim_writeout .false.' .
  in the first line of control.in .
  -----------------------------------------------------------------------
  
    xc              pbe
    relativistic    zora scalar 1.0e-12
    KS_method	  serial
    k_grid          3 3 1
    spin		  collinear
    default_initial_moment	0.0
    charge          0.1
    restart_write_only   restart
    output          Mulliken
  
  
  ################################################################################
  #
  #  FHI-aims code project
  #  VB, Fritz-Haber Institut, 2009
  #
  #  Suggested "light" defaults for Ti atom (to be pasted into control.in file)
  #  Be sure to double-check any results obtained with these settings for post-processing,
  #  e.g., with the "tight" defaults and larger basis sets.
  #
  ################################################################################
    species        Ti
  #     global species definitions
      nucleus             22
      mass                47.867
  #
      l_hartree           4
  #
      cut_pot             3.5          1.5  1.0
      basis_dep_cutoff    1e-4
  #
      radial_base         48 5.0
      radial_multiplier   1
      angular_grids       specified
        division   0.5171   50
        division   0.9824  110
        division   1.2917  194
        division   1.4940  302
  #      division   1.6934  434
  #      division   1.8425  590
  #      division   2.1901  770
  #      division   2.2896  974
  #      division   2.8244 1202
  #      outer_grid  974
        outer_grid  302
  ################################################################################
  #
  #  Definition of "minimal" basis
  #
  ################################################################################
  #     valence basis states
      valence      4  s   2.
      valence      3  p   6.
      valence      3  d   2.
  #     ion occupancy
      ion_occ      4  s   1.
      ion_occ      3  p   6.
      ion_occ      3  d   1.
  ################################################################################
  #
  #  Suggested additional basis functions. For production calculations,
  #  uncomment them one after another (the most important basis functions are
  #  listed first).
  #
  #  Constructed for dimers: 1.6 A, 1.85 A, 2.5 A, 3.25 A, 4.25 A
  #
  ################################################################################
  #  "First tier" - improvements: -396.25 meV to -19.41 meV
       hydro 4 f 8
       hydro 3 d 2.7
       ionic 4 p auto
  #     hydro 5 g 11.6
       ionic 4 s auto
  #  "Second tier" - improvements: -16.30 meV to -2.03 meV
  #     hydro 3 d 4.4
  #     hydro 6 h 16
  #     hydro 4 f 9.4
  #     hydro 4 p 4.5
  #     hydro 1 s 0.5
  #  "Third tier" - improvements: -6.28 meV to -0.37 meV
  #     hydro 4 d 6.4
  #     hydro 4 f 10
  #     hydro 5 g 12
  #     hydro 2 p 1.7
  #     hydro 6 h 16.4
  #     hydro 4 s 3.8
  #  Further basis functions: -0.45 meV and smaller improvements
  #     hydro 3 d 8.8
  #     hydro 5 p 18
  #     hydro 4 f 22.4
  #     hydro 5 f 7.2  # -0.16 meV
  #     hydro 3 d 2.1  # -0.11 meV
  #     hydro 5 g 7.4  # -0.09 meV
  
  
  ################################################################################
  #
  #  FHI-aims code project
  #  VB, Fritz-Haber Institut, 2009
  #
  #  Suggested "light" defaults for O atom (to be pasted into control.in file)
  #  Be sure to double-check any results obtained with these settings for post-processing,
  #  e.g., with the "tight" defaults and larger basis sets.
  #
  ################################################################################
    species        O
  #     global species definitions
      nucleus             8
      mass                15.9994
  #
      l_hartree           4
  #
      cut_pot             3.5  1.5  1.0
      basis_dep_cutoff    1e-4
  #
      radial_base         36 5.0
      radial_multiplier   1
       angular_grids specified
        division   0.2659   50
        division   0.4451  110
        division   0.6052  194
        division   0.7543  302
  #      division   0.8014  434
  #      division   0.8507  590
  #      division   0.8762  770
  #      division   0.9023  974
  #      division   1.2339 1202
  #      outer_grid 974
        outer_grid 302
  ################################################################################
  #
  #  Definition of "minimal" basis
  #
  ################################################################################
  #     valence basis states
      valence      2  s   2.
      valence      2  p   4.
  #     ion occupancy
      ion_occ      2  s   1.
      ion_occ      2  p   3.
  ################################################################################
  #
  #  Suggested additional basis functions. For production calculations,
  #  uncomment them one after another (the most important basis functions are
  #  listed first).
  #
  #  Constructed for dimers: 1.0 A, 1.208 A, 1.5 A, 2.0 A, 3.0 A
  #
  ################################################################################
  #  "First tier" - improvements: -699.05 meV to -159.38 meV
       hydro 2 p 1.8
       hydro 3 d 7.6
       hydro 3 s 6.4
  #  "Second tier" - improvements: -49.91 meV to -5.39 meV
  #     hydro 4 f 11.6
  #     hydro 3 p 6.2
  #     hydro 3 d 5.6
  #     hydro 5 g 17.6
  #     hydro 1 s 0.75
  #  "Third tier" - improvements: -2.83 meV to -0.50 meV
  #     ionic 2 p auto
  #     hydro 4 f 10.8
  #     hydro 4 d 4.7
  #     hydro 2 s 6.8
  #  "Fourth tier" - improvements: -0.40 meV to -0.12 meV
  #     hydro 3 p 5
  #     hydro 3 s 3.3
  #     hydro 5 g 15.6
  #     hydro 4 f 17.6
  #     hydro 4 d 14
  # Further basis functions - -0.08 meV and below
  #     hydro 3 s 2.1
  #     hydro 4 d 11.6
  #     hydro 3 p 16
  #     hydro 2 s 17.2
  
  ################################################################################
  #
  #  "Core" basis functions and numerical settings for O atom.
  #  Based on “tight” defaults (V. Blum, 2009).
  #
  ################################################################################
    species        O1
  #     global species definitions
      nucleus             8.1
      mass                15.9994
  #
      l_hartree           6
  #
      cut_pot             4.0  2.0  1.0
      basis_dep_cutoff    1e-4
  #
      radial_base         36 7.0
      radial_multiplier   2
       angular_grids specified
        division   0.1817   50
        division   0.3417  110
        division   0.4949  194
        division   0.6251  302
        division   0.8014  434
  #      division   0.8507  590
  #      division   0.8762  770
  #      division   0.9023  974
  #      division   1.2339 1202
  #      outer_grid 974
        outer_grid  434
  ################################################################################
  #
  #  Definition of "minimal" basis
  #
  ################################################################################
  #     valence basis states
      valence      2  s   2.
      valence      2  p   4.1
  #     ion occupancy
      ion_occ      2  s   1.
      ion_occ      2  p   3.
  ################################################################################
  #
  #  Suggested additional basis functions. For production calculations,
  #  uncomment them one after another (the most important basis functions are
  #  listed first).
  #
  #  Constructed for dimers: 1.0 A, 1.208 A, 1.5 A, 2.0 A, 3.0 A
  #
  ################################################################################
  #  "First tier" - improvements: -699.05 meV to -159.38 meV
       hydro 2 p 1.8
       hydro 3 d 7.6
       hydro 3 s 6.4
  #  "Second tier" - improvements: -49.91 meV to -5.39 meV
       hydro 4 f 11.6
       hydro 3 p 6.2
       hydro 3 d 5.6
       hydro 5 g 17.6
       hydro 1 s 0.75
  #  "Third tier" - improvements: -2.83 meV to -0.50 meV
       ionic 2 p auto
       hydro 4 f 10.8
       hydro 4 d 4.7
       hydro 2 s 6.8
  #  "Fourth tier" - improvements: -0.40 meV to -0.12 meV
  #     hydro 3 p 5
  #     hydro 3 s 3.3
  #     hydro 5 g 15.6
  #     hydro 4 f 17.6
  #     hydro 4 d 14
  # Further basis functions - -0.08 meV and below
  #     hydro 3 s 2.1
  #     hydro 4 d 11.6
  #     hydro 3 p 16
  #     hydro 2 s 17.2
  
  # Additional basis functions for atom with a core hole
       hydro 1 s 12.0
       hydro 1 s 10.0
       hydro 1 s 6.0
       hydro 2 s 10.0
       hydro 2 p 8.0
       hydro 2 p 6.0
       hydro 3 d 8.0
  ################################################################################
  #
  #  FHI-aims code project
  #  VB, Fritz-Haber Institut, 2009
  #
  #  Suggested "light" defaults for H atom (to be pasted into control.in file)
  #  Be sure to double-check any results obtained with these settings for post-processing,
  #  e.g., with the "tight" defaults and larger basis sets.
  #
  ################################################################################
    species        H
  #     global species definitions
      nucleus             1
      mass                1.00794
  #
      l_hartree           4
  #
      cut_pot             3.5  1.5  1.0
      basis_dep_cutoff    1e-4
  #
      radial_base         24 5.0
      radial_multiplier   1
      angular_grids       specified
        division   0.2421   50
        division   0.3822  110
        division   0.4799  194
        division   0.5341  302
  #      division   0.5626  434
  #      division   0.5922  590
  #      division   0.6542  770
  #      division   0.6868 1202
  #      outer_grid  770
        outer_grid  302
  ################################################################################
  #
  #  Definition of "minimal" basis
  #
  ################################################################################
  #     valence basis states
      valence      1  s   1.
  #     ion occupancy
      ion_occ      1  s   0.5
  ################################################################################
  #
  #  Suggested additional basis functions. For production calculations,
  #  uncomment them one after another (the most important basis functions are
  #  listed first).
  #
  #  Basis constructed for dimers: 0.5 A, 0.7 A, 1.0 A, 1.5 A, 2.5 A
  #
  ################################################################################
  #  "First tier" - improvements: -1014.90 meV to -62.69 meV
       hydro 2 s 2.1
       hydro 2 p 3.5
  #  "Second tier" - improvements: -12.89 meV to -1.83 meV
  #     hydro 1 s 0.85
  #     hydro 2 p 3.7
  #     hydro 2 s 1.2
  #     hydro 3 d 7
  #  "Third tier" - improvements: -0.25 meV to -0.12 meV
  #     hydro 4 f 11.2
  #     hydro 3 p 4.8
  #     hydro 4 d 9
  #     hydro 3 s 3.2
  
  -----------------------------------------------------------------------
  Completed first pass over input file control.in .
  -----------------------------------------------------------------------
  
  
  -----------------------------------------------------------------------
  Parsing geometry.in (first pass over file, find array dimensions only).
  The contents of geometry.in will be repeated verbatim below
  unless switched off by setting 'verbatim_writeout .false.' .
  in the first line of geometry.in .
  -----------------------------------------------------------------------
  
  lattice_vector 19.698381 0.000000 0.000000
  lattice_vector 0.000000 17.837295 0.000000
  lattice_vector 0.000000 0.000000 66.705880
  
  atom 6.566086 0.000000 24.506468 O
  atom 2.006317 1.486441 25.783206 O
  atom 3.283046 0.000000 25.783235 Ti
  atom 6.566109 1.486441 25.783235 Ti
  atom 4.559775 1.486441 25.783265 O
  atom 0.000005 0.000000 27.060002 O
  atom 3.283006 0.000000 27.789704 O
  atom 5.289362 1.486441 29.066441 O
  atom 6.566091 0.000000 29.066471 Ti
  atom 3.283028 1.486441 29.066471 Ti
  atom 1.276694 1.486441 29.066500 O
  atom 3.283051 0.000000 30.343237 O
  atom 6.566051 0.000000 31.072939 O
  atom 2.006281 1.486441 32.349676 O
  atom 3.283010 0.000000 32.349706 Ti
  atom 6.566074 1.486441 32.349706 Ti
  atom 4.559740 1.486441 32.349735 O
  atom 6.566096 0.000000 33.626473 O
  atom 3.282970 0.000000 34.356174 O
  atom 5.289327 1.486441 35.632912 O
  atom 6.566056 0.000000 35.632941 Ti
  atom 3.282993 1.486441 35.632941 Ti
  atom 1.276659 1.486441 35.632970 O
  atom 3.283015 0.000000 36.909708 O
  atom 6.566016 0.000000 37.639409 O
  atom 2.006246 1.486441 38.916147 O
  atom 3.282975 0.000000 38.916176 Ti
  atom 6.566039 1.486441 38.916176 Ti
  atom 4.559704 1.486441 38.916206 O
  atom 6.566061 0.000000 40.192943 O
  atom 3.282935 0.000000 40.922645 O
  atom 5.289292 1.486441 42.199382 O
  atom 6.566021 0.000000 42.199412 Ti
  atom 3.282958 1.486441 42.199412 Ti
  atom 1.276623 1.486441 42.199441 O
  atom 3.282980 0.000000 43.476178 O
  atom 6.566086 2.972883 24.506468 O
  atom 2.006317 4.459324 25.783206 O
  atom 3.283046 2.972883 25.783235 Ti
  atom 6.566109 4.459324 25.783235 Ti
  atom 4.559775 4.459324 25.783265 O
  atom 0.000005 2.972883 27.060002 O
  atom 3.283006 2.972883 27.789704 O
  atom 5.289362 4.459324 29.066441 O
  atom 6.566091 2.972883 29.066471 Ti
  atom 3.283028 4.459324 29.066471 Ti
  atom 1.276694 4.459324 29.066500 O
  atom 3.283051 2.972883 30.343237 O
  atom 6.566051 2.972883 31.072939 O
  atom 2.006281 4.459324 32.349676 O
  atom 3.283010 2.972883 32.349706 Ti
  atom 6.566074 4.459324 32.349706 Ti
  atom 4.559740 4.459324 32.349735 O
  atom 6.566096 2.972883 33.626473 O
  atom 3.282970 2.972883 34.356174 O
  atom 5.289327 4.459324 35.632912 O
  atom 6.566056 2.972883 35.632941 Ti
  atom 3.282993 4.459324 35.632941 Ti
  atom 1.276659 4.459324 35.632970 O
  atom 3.283015 2.972883 36.909708 O
  atom 6.566016 2.972883 37.639409 O
  atom 2.006246 4.459324 38.916147 O
  atom 3.282975 2.972883 38.916176 Ti
  atom 6.566039 4.459324 38.916176 Ti
  atom 4.559704 4.459324 38.916206 O
  atom 6.566061 2.972883 40.192943 O
  atom 3.282935 2.972883 40.922645 O
  atom 5.289292 4.459324 42.199382 O
  atom 6.566021 2.972883 42.199412 Ti
  atom 3.282958 4.459324 42.199412 Ti
  atom 1.276623 4.459324 42.199441 O
  atom 3.282980 2.972883 43.476178 O
  atom 3.282980 2.972883 44.476178 H
  atom 3.282980 0.000000 44.476178 H
  atom 6.566086 0.000000 23.506468 H
  atom 6.566086 2.972883 23.506468 H
  atom 6.566021 2.972883 44.199441 O
  atom 6.566021 0.000000 44.199441 O
  atom 6.566021 2.972883 45.199441 H
  atom 6.566021 0.000000 45.199441 H
  atom 3.283046 0.000000 23.783235 O
  atom 3.283046 0.000000 22.783235 H
  atom 3.283046 2.972883 23.783235 O
  atom 3.283046 2.972883 22.783235 H
  atom 6.566086 5.945765 24.506468 O
  atom 2.006317 7.432206 25.783206 O
  atom 3.283046 5.945765 25.783235 Ti
  atom 6.566109 7.432206 25.783235 Ti
  atom 4.559775 7.432206 25.783265 O
  atom 0.000005 5.945765 27.060002 O
  atom 3.283006 5.945765 27.789704 O
  atom 5.289362 7.432206 29.066441 O
  atom 6.566091 5.945765 29.066471 Ti
  atom 3.283028 7.432206 29.066471 Ti
  atom 1.276694 7.432206 29.066500 O
  atom 3.283051 5.945765 30.343237 O
  atom 6.566051 5.945765 31.072939 O
  atom 2.006281 7.432206 32.349676 O
  atom 3.283010 5.945765 32.349706 Ti
  atom 6.566074 7.432206 32.349706 Ti
  atom 4.559740 7.432206 32.349735 O
  atom 6.566096 5.945765 33.626473 O
  atom 3.282970 5.945765 34.356174 O
  atom 5.289327 7.432206 35.632912 O
  atom 6.566056 5.945765 35.632941 Ti
  atom 3.282993 7.432206 35.632941 Ti
  atom 1.276659 7.432206 35.632970 O
  atom 3.283015 5.945765 36.909708 O
  atom 6.566016 5.945765 37.639409 O
  atom 2.006246 7.432206 38.916147 O
  atom 3.282975 5.945765 38.916176 Ti
  atom 6.566039 7.432206 38.916176 Ti
  atom 4.559704 7.432206 38.916206 O
  atom 6.566061 5.945765 40.192943 O
  atom 3.282935 5.945765 40.922645 O
  atom 5.289292 7.432206 42.199382 O
  atom 6.566021 5.945765 42.199412 Ti
  atom 3.282958 7.432206 42.199412 Ti
  atom 1.276623 7.432206 42.199441 O
  atom 3.282980 5.945765 43.476178 O
  atom 6.566086 8.918648 24.506468 O
  atom 2.006317 10.405089 25.783206 O
  atom 3.283046 8.918648 25.783235 Ti
  atom 6.566109 10.405089 25.783235 Ti
  atom 4.559775 10.405089 25.783265 O
  atom 0.000005 8.918648 27.060002 O
  atom 3.283006 8.918648 27.789704 O
  atom 5.289362 10.405089 29.066441 O
  atom 6.566091 8.918648 29.066471 Ti
  atom 3.283028 10.405089 29.066471 Ti
  atom 1.276694 10.405089 29.066500 O
  atom 3.283051 8.918648 30.343237 O
  atom 6.566051 8.918648 31.072939 O
  atom 2.006281 10.405089 32.349676 O
  atom 3.283010 8.918648 32.349706 Ti
  atom 6.566074 10.405089 32.349706 Ti
  atom 4.559740 10.405089 32.349735 O
  atom 6.566096 8.918648 33.626473 O
  atom 3.282970 8.918648 34.356174 O
  atom 5.289327 10.405089 35.632912 O
  atom 6.566056 8.918648 35.632941 Ti
  atom 3.282993 10.405089 35.632941 Ti
  atom 1.276659 10.405089 35.632970 O
  atom 3.283015 8.918648 36.909708 O
  atom 6.566016 8.918648 37.639409 O
  atom 2.006246 10.405089 38.916147 O
  atom 3.282975 8.918648 38.916176 Ti
  atom 6.566039 10.405089 38.916176 Ti
  atom 4.559704 10.405089 38.916206 O
  atom 6.566061 8.918648 40.192943 O
  atom 3.282935 8.918648 40.922645 O
  atom 5.289292 10.405089 42.199382 O
  atom 6.566021 8.918648 42.199412 Ti
  atom 3.282958 10.405089 42.199412 Ti
  atom 1.276623 10.405089 42.199441 O
  atom 3.282980 8.918648 43.476178 O
  atom 3.282980 8.918648 44.476178 H
  atom 3.282980 5.945765 44.476178 H
  atom 6.566086 5.945765 23.506468 H
  atom 6.566086 8.918648 23.506468 H
  atom 6.566021 8.918648 44.199441 O
  atom 6.566021 5.945765 44.199441 O
  atom 6.566021 8.918648 45.199441 H
  atom 6.566021 5.945765 45.199441 H
  atom 3.283046 5.945765 23.783235 O
  atom 3.283046 5.945765 22.783235 H
  atom 3.283046 8.918648 23.783235 O
  atom 3.283046 8.918648 22.783235 H
  atom 6.566086 11.891530 24.506468 O
  atom 2.006317 13.377971 25.783206 O
  atom 3.283046 11.891530 25.783235 Ti
  atom 6.566109 13.377971 25.783235 Ti
  atom 4.559775 13.377971 25.783265 O
  atom 0.000005 11.891530 27.060002 O
  atom 3.283006 11.891530 27.789704 O
  atom 5.289362 13.377971 29.066441 O
  atom 6.566091 11.891530 29.066471 Ti
  atom 3.283028 13.377971 29.066471 Ti
  atom 1.276694 13.377971 29.066500 O
  atom 3.283051 11.891530 30.343237 O
  atom 6.566051 11.891530 31.072939 O
  atom 2.006281 13.377971 32.349676 O
  atom 3.283010 11.891530 32.349706 Ti
  atom 6.566074 13.377971 32.349706 Ti
  atom 4.559740 13.377971 32.349735 O
  atom 6.566096 11.891530 33.626473 O
  atom 3.282970 11.891530 34.356174 O
  atom 5.289327 13.377971 35.632912 O
  atom 6.566056 11.891530 35.632941 Ti
  atom 3.282993 13.377971 35.632941 Ti
  atom 1.276659 13.377971 35.632970 O
  atom 3.283015 11.891530 36.909708 O
  atom 6.566016 11.891530 37.639409 O
  atom 2.006246 13.377971 38.916147 O
  atom 3.282975 11.891530 38.916176 Ti
  atom 6.566039 13.377971 38.916176 Ti
  atom 4.559704 13.377971 38.916206 O
  atom 6.566061 11.891530 40.192943 O
  atom 3.282935 11.891530 40.922645 O
  atom 5.289292 13.377971 42.199382 O
  atom 6.566021 11.891530 42.199412 Ti
  atom 3.282958 13.377971 42.199412 Ti
  atom 1.276623 13.377971 42.199441 O
  atom 3.282980 11.891530 43.476178 O
  atom 6.566086 14.864413 24.506468 O
  atom 2.006317 16.350854 25.783206 O
  atom 3.283046 14.864413 25.783235 Ti
  atom 6.566109 16.350854 25.783235 Ti
  atom 4.559775 16.350854 25.783265 O
  atom 0.000005 14.864413 27.060002 O
  atom 3.283006 14.864413 27.789704 O
  atom 5.289362 16.350854 29.066441 O
  atom 6.566091 14.864413 29.066471 Ti
  atom 3.283028 16.350854 29.066471 Ti
  atom 1.276694 16.350854 29.066500 O
  atom 3.283051 14.864413 30.343237 O
  atom 6.566051 14.864413 31.072939 O
  atom 2.006281 16.350854 32.349676 O
  atom 3.283010 14.864413 32.349706 Ti
  atom 6.566074 16.350854 32.349706 Ti
  atom 4.559740 16.350854 32.349735 O
  atom 6.566096 14.864413 33.626473 O
  atom 3.282970 14.864413 34.356174 O
  atom 5.289327 16.350854 35.632912 O
  atom 6.566056 14.864413 35.632941 Ti
  atom 3.282993 16.350854 35.632941 Ti
  atom 1.276659 16.350854 35.632970 O
  atom 3.283015 14.864413 36.909708 O
  atom 6.566016 14.864413 37.639409 O
  atom 2.006246 16.350854 38.916147 O
  atom 3.282975 14.864413 38.916176 Ti
  atom 6.566039 16.350854 38.916176 Ti
  atom 4.559704 16.350854 38.916206 O
  atom 6.566061 14.864413 40.192943 O
  atom 3.282935 14.864413 40.922645 O
  atom 5.289292 16.350854 42.199382 O
  atom 6.566021 14.864413 42.199412 Ti
  atom 3.282958 16.350854 42.199412 Ti
  atom 1.276623 16.350854 42.199441 O
  atom 3.282980 14.864413 43.476178 O
  atom 3.282980 14.864413 44.476178 H
  atom 3.282980 11.891530 44.476178 H
  atom 6.566086 11.891530 23.506468 H
  atom 6.566086 14.864413 23.506468 H
  atom 6.566021 14.864413 44.199441 O
  atom 6.566021 11.891530 44.199441 O
  atom 6.566021 14.864413 45.199441 H
  atom 6.566021 11.891530 45.199441 H
  atom 3.283046 11.891530 23.783235 O
  atom 3.283046 11.891530 22.783235 H
  atom 3.283046 14.864413 23.783235 O
  atom 3.283046 14.864413 22.783235 H
  atom 13.132213 0.000000 24.506468 O
  atom 8.572444 1.486441 25.783206 O
  atom 9.849173 0.000000 25.783235 Ti
  atom 13.132236 1.486441 25.783235 Ti
  atom 11.125902 1.486441 25.783265 O
  atom 6.566132 0.000000 27.060002 O
  atom 9.849133 0.000000 27.789704 O
  atom 11.855489 1.486441 29.066441 O
  atom 13.132218 0.000000 29.066471 Ti
  atom 9.849155 1.486441 29.066471 Ti
  atom 7.842821 1.486441 29.066500 O
  atom 9.849178 0.000000 30.343237 O
  atom 13.132178 0.000000 31.072939 O
  atom 8.572408 1.486441 32.349676 O
  atom 9.849137 0.000000 32.349706 Ti
  atom 13.132201 1.486441 32.349706 Ti
  atom 11.125867 1.486441 32.349735 O
  atom 13.132223 0.000000 33.626473 O
  atom 9.849097 0.000000 34.356174 O
  atom 11.855454 1.486441 35.632912 O
  atom 13.132183 0.000000 35.632941 Ti
  atom 9.849120 1.486441 35.632941 Ti
  atom 7.842786 1.486441 35.632970 O
  atom 9.849142 0.000000 36.909708 O
  atom 13.132143 0.000000 37.639409 O
  atom 8.572373 1.486441 38.916147 O
  atom 9.849102 0.000000 38.916176 Ti
  atom 13.132166 1.486441 38.916176 Ti
  atom 11.125831 1.486441 38.916206 O
  atom 13.132188 0.000000 40.192943 O
  atom 9.849062 0.000000 40.922645 O
  atom 11.855419 1.486441 42.199382 O
  atom 13.132148 0.000000 42.199412 Ti
  atom 9.849085 1.486441 42.199412 Ti
  atom 7.842750 1.486441 42.199441 O
  atom 9.849107 0.000000 43.476178 O
  atom 13.132213 2.972883 24.506468 O
  atom 8.572444 4.459324 25.783206 O
  atom 9.849173 2.972883 25.783235 Ti
  atom 13.132236 4.459324 25.783235 Ti
  atom 11.125902 4.459324 25.783265 O
  atom 6.566132 2.972883 27.060002 O
  atom 9.849133 2.972883 27.789704 O
  atom 11.855489 4.459324 29.066441 O
  atom 13.132218 2.972883 29.066471 Ti
  atom 9.849155 4.459324 29.066471 Ti
  atom 7.842821 4.459324 29.066500 O
  atom 9.849178 2.972883 30.343237 O
  atom 13.132178 2.972883 31.072939 O
  atom 8.572408 4.459324 32.349676 O
  atom 9.849137 2.972883 32.349706 Ti
  atom 13.132201 4.459324 32.349706 Ti
  atom 11.125867 4.459324 32.349735 O
  atom 13.132223 2.972883 33.626473 O
  atom 9.849097 2.972883 34.356174 O
  atom 11.855454 4.459324 35.632912 O
  atom 13.132183 2.972883 35.632941 Ti
  atom 9.849120 4.459324 35.632941 Ti
  atom 7.842786 4.459324 35.632970 O
  atom 9.849142 2.972883 36.909708 O
  atom 13.132143 2.972883 37.639409 O
  atom 8.572373 4.459324 38.916147 O
  atom 9.849102 2.972883 38.916176 Ti
  atom 13.132166 4.459324 38.916176 Ti
  atom 11.125831 4.459324 38.916206 O
  atom 13.132188 2.972883 40.192943 O
  atom 9.849062 2.972883 40.922645 O
  atom 11.855419 4.459324 42.199382 O
  atom 13.132148 2.972883 42.199412 Ti
  atom 9.849085 4.459324 42.199412 Ti
  atom 7.842750 4.459324 42.199441 O
  atom 9.849107 2.972883 43.476178 O
  atom 9.849107 2.972883 44.476178 H
  atom 9.849107 0.000000 44.476178 H
  atom 13.132213 0.000000 23.506468 H
  atom 13.132213 2.972883 23.506468 H
  atom 13.132148 2.972883 44.199441 O
  atom 13.132148 0.000000 44.199441 O
  atom 13.132148 2.972883 45.199441 H
  atom 13.132148 0.000000 45.199441 H
  atom 9.849173 0.000000 23.783235 O
  atom 9.849173 0.000000 22.783235 H
  atom 9.849173 2.972883 23.783235 O
  atom 9.849173 2.972883 22.783235 H
  atom 13.132213 5.945765 24.506468 O
  atom 8.572444 7.432206 25.783206 O
  atom 9.849173 5.945765 25.783235 Ti
  atom 13.132236 7.432206 25.783235 Ti
  atom 11.125902 7.432206 25.783265 O
  atom 6.566132 5.945765 27.060002 O
  atom 9.849133 5.945765 27.789704 O
  atom 11.855489 7.432206 29.066441 O
  atom 13.132218 5.945765 29.066471 Ti
  atom 9.849155 7.432206 29.066471 Ti
  atom 7.842821 7.432206 29.066500 O
  atom 9.849178 5.945765 30.343237 O
  atom 13.132178 5.945765 31.072939 O
  atom 8.572408 7.432206 32.349676 O
  atom 9.849137 5.945765 32.349706 Ti
  atom 13.132201 7.432206 32.349706 Ti
  atom 11.125867 7.432206 32.349735 O
  atom 13.132223 5.945765 33.626473 O
  atom 9.849097 5.945765 34.356174 O1
  atom 11.855454 7.432206 35.632912 O
  atom 13.132183 5.945765 35.632941 Ti
  atom 9.849120 7.432206 35.632941 Ti
  atom 7.842786 7.432206 35.632970 O
  atom 9.849142 5.945765 36.909708 O
  atom 13.132143 5.945765 37.639409 O
  atom 8.572373 7.432206 38.916147 O
  atom 9.849102 5.945765 38.916176 Ti
  atom 13.132166 7.432206 38.916176 Ti
  atom 11.125831 7.432206 38.916206 O
  atom 13.132188 5.945765 40.192943 O
  atom 9.849062 5.945765 40.922645 O
  atom 11.855419 7.432206 42.199382 O
  atom 13.132148 5.945765 42.199412 Ti
  atom 9.849085 7.432206 42.199412 Ti
  atom 7.842750 7.432206 42.199441 O
  atom 9.849107 5.945765 43.476178 O
  atom 13.132213 8.918648 24.506468 O
  atom 8.572444 10.405089 25.783206 O
  atom 9.849173 8.918648 25.783235 Ti
  atom 13.132236 10.405089 25.783235 Ti
  atom 11.125902 10.405089 25.783265 O
  atom 6.566132 8.918648 27.060002 O
  atom 9.849133 8.918648 27.789704 O
  atom 11.855489 10.405089 29.066441 O
  atom 13.132218 8.918648 29.066471 Ti
  atom 9.849155 10.405089 29.066471 Ti
  atom 7.842821 10.405089 29.066500 O
  atom 9.849178 8.918648 30.343237 O
  atom 13.132178 8.918648 31.072939 O
  atom 8.572408 10.405089 32.349676 O
  atom 9.849137 8.918648 32.349706 Ti
  atom 13.132201 10.405089 32.349706 Ti
  atom 11.125867 10.405089 32.349735 O
  atom 13.132223 8.918648 33.626473 O
  atom 9.849097 8.918648 34.356174 O
  atom 11.855454 10.405089 35.632912 O
  atom 13.132183 8.918648 35.632941 Ti
  atom 9.849120 10.405089 35.632941 Ti
  atom 7.842786 10.405089 35.632970 O
  atom 9.849142 8.918648 36.909708 O
  atom 13.132143 8.918648 37.639409 O
  atom 8.572373 10.405089 38.916147 O
  atom 9.849102 8.918648 38.916176 Ti
  atom 13.132166 10.405089 38.916176 Ti
  atom 11.125831 10.405089 38.916206 O
  atom 13.132188 8.918648 40.192943 O
  atom 9.849062 8.918648 40.922645 O
  atom 11.855419 10.405089 42.199382 O
  atom 13.132148 8.918648 42.199412 Ti
  atom 9.849085 10.405089 42.199412 Ti
  atom 7.842750 10.405089 42.199441 O
  atom 9.849107 8.918648 43.476178 O
  atom 9.849107 8.918648 44.476178 H
  atom 9.849107 5.945765 44.476178 H
  atom 13.132213 5.945765 23.506468 H
  atom 13.132213 8.918648 23.506468 H
  atom 13.132148 8.918648 44.199441 O
  atom 13.132148 5.945765 44.199441 O
  atom 13.132148 8.918648 45.199441 H
  atom 13.132148 5.945765 45.199441 H
  atom 9.849173 5.945765 23.783235 O
  atom 9.849173 5.945765 22.783235 H
  atom 9.849173 8.918648 23.783235 O
  atom 9.849173 8.918648 22.783235 H
  atom 13.132213 11.891530 24.506468 O
  atom 8.572444 13.377971 25.783206 O
  atom 9.849173 11.891530 25.783235 Ti
  atom 13.132236 13.377971 25.783235 Ti
  atom 11.125902 13.377971 25.783265 O
  atom 6.566132 11.891530 27.060002 O
  atom 9.849133 11.891530 27.789704 O
  atom 11.855489 13.377971 29.066441 O
  atom 13.132218 11.891530 29.066471 Ti
  atom 9.849155 13.377971 29.066471 Ti
  atom 7.842821 13.377971 29.066500 O
  atom 9.849178 11.891530 30.343237 O
  atom 13.132178 11.891530 31.072939 O
  atom 8.572408 13.377971 32.349676 O
  atom 9.849137 11.891530 32.349706 Ti
  atom 13.132201 13.377971 32.349706 Ti
  atom 11.125867 13.377971 32.349735 O
  atom 13.132223 11.891530 33.626473 O
  atom 9.849097 11.891530 34.356174 O
  atom 11.855454 13.377971 35.632912 O
  atom 13.132183 11.891530 35.632941 Ti
  atom 9.849120 13.377971 35.632941 Ti
  atom 7.842786 13.377971 35.632970 O
  atom 9.849142 11.891530 36.909708 O
  atom 13.132143 11.891530 37.639409 O
  atom 8.572373 13.377971 38.916147 O
  atom 9.849102 11.891530 38.916176 Ti
  atom 13.132166 13.377971 38.916176 Ti
  atom 11.125831 13.377971 38.916206 O
  atom 13.132188 11.891530 40.192943 O
  atom 9.849062 11.891530 40.922645 O
  atom 11.855419 13.377971 42.199382 O
  atom 13.132148 11.891530 42.199412 Ti
  atom 9.849085 13.377971 42.199412 Ti
  atom 7.842750 13.377971 42.199441 O
  atom 9.849107 11.891530 43.476178 O
  atom 13.132213 14.864413 24.506468 O
  atom 8.572444 16.350854 25.783206 O
  atom 9.849173 14.864413 25.783235 Ti
  atom 13.132236 16.350854 25.783235 Ti
  atom 11.125902 16.350854 25.783265 O
  atom 6.566132 14.864413 27.060002 O
  atom 9.849133 14.864413 27.789704 O
  atom 11.855489 16.350854 29.066441 O
  atom 13.132218 14.864413 29.066471 Ti
  atom 9.849155 16.350854 29.066471 Ti
  atom 7.842821 16.350854 29.066500 O
  atom 9.849178 14.864413 30.343237 O
  atom 13.132178 14.864413 31.072939 O
  atom 8.572408 16.350854 32.349676 O
  atom 9.849137 14.864413 32.349706 Ti
  atom 13.132201 16.350854 32.349706 Ti
  atom 11.125867 16.350854 32.349735 O
  atom 13.132223 14.864413 33.626473 O
  atom 9.849097 14.864413 34.356174 O
  atom 11.855454 16.350854 35.632912 O
  atom 13.132183 14.864413 35.632941 Ti
  atom 9.849120 16.350854 35.632941 Ti
  atom 7.842786 16.350854 35.632970 O
  atom 9.849142 14.864413 36.909708 O
  atom 13.132143 14.864413 37.639409 O
  atom 8.572373 16.350854 38.916147 O
  atom 9.849102 14.864413 38.916176 Ti
  atom 13.132166 16.350854 38.916176 Ti
  atom 11.125831 16.350854 38.916206 O
  atom 13.132188 14.864413 40.192943 O
  atom 9.849062 14.864413 40.922645 O
  atom 11.855419 16.350854 42.199382 O
  atom 13.132148 14.864413 42.199412 Ti
  atom 9.849085 16.350854 42.199412 Ti
  atom 7.842750 16.350854 42.199441 O
  atom 9.849107 14.864413 43.476178 O
  atom 9.849107 14.864413 44.476178 H
  atom 9.849107 11.891530 44.476178 H
  atom 13.132213 11.891530 23.506468 H
  atom 13.132213 14.864413 23.506468 H
  atom 13.132148 14.864413 44.199441 O
  atom 13.132148 11.891530 44.199441 O
  atom 13.132148 14.864413 45.199441 H
  atom 13.132148 11.891530 45.199441 H
  atom 9.849173 11.891530 23.783235 O
  atom 9.849173 11.891530 22.783235 H
  atom 9.849173 14.864413 23.783235 O
  atom 9.849173 14.864413 22.783235 H
  atom 19.698340 0.000000 24.506468 O
  atom 15.138571 1.486441 25.783206 O
  atom 16.415300 0.000000 25.783235 Ti
  atom 19.698363 1.486441 25.783235 Ti
  atom 17.692029 1.486441 25.783265 O
  atom 13.132259 0.000000 27.060002 O
  atom 16.415260 0.000000 27.789704 O
  atom 18.421616 1.486441 29.066441 O
  atom 19.698345 0.000000 29.066471 Ti
  atom 16.415282 1.486441 29.066471 Ti
  atom 14.408948 1.486441 29.066500 O
  atom 16.415305 0.000000 30.343237 O
  atom 19.698305 0.000000 31.072939 O
  atom 15.138535 1.486441 32.349676 O
  atom 16.415264 0.000000 32.349706 Ti
  atom 19.698328 1.486441 32.349706 Ti
  atom 17.691994 1.486441 32.349735 O
  atom 19.698350 0.000000 33.626473 O
  atom 16.415224 0.000000 34.356174 O
  atom 18.421581 1.486441 35.632912 O
  atom 19.698310 0.000000 35.632941 Ti
  atom 16.415247 1.486441 35.632941 Ti
  atom 14.408913 1.486441 35.632970 O
  atom 16.415269 0.000000 36.909708 O
  atom 19.698270 0.000000 37.639409 O
  atom 15.138500 1.486441 38.916147 O
  atom 16.415229 0.000000 38.916176 Ti
  atom 19.698293 1.486441 38.916176 Ti
  atom 17.691958 1.486441 38.916206 O
  atom 19.698315 0.000000 40.192943 O
  atom 16.415189 0.000000 40.922645 O
  atom 18.421546 1.486441 42.199382 O
  atom 19.698275 0.000000 42.199412 Ti
  atom 16.415212 1.486441 42.199412 Ti
  atom 14.408877 1.486441 42.199441 O
  atom 16.415234 0.000000 43.476178 O
  atom 19.698340 2.972883 24.506468 O
  atom 15.138571 4.459324 25.783206 O
  atom 16.415300 2.972883 25.783235 Ti
  atom 19.698363 4.459324 25.783235 Ti
  atom 17.692029 4.459324 25.783265 O
  atom 13.132259 2.972883 27.060002 O
  atom 16.415260 2.972883 27.789704 O
  atom 18.421616 4.459324 29.066441 O
  atom 19.698345 2.972883 29.066471 Ti
  atom 16.415282 4.459324 29.066471 Ti
  atom 14.408948 4.459324 29.066500 O
  atom 16.415305 2.972883 30.343237 O
  atom 19.698305 2.972883 31.072939 O
  atom 15.138535 4.459324 32.349676 O
  atom 16.415264 2.972883 32.349706 Ti
  atom 19.698328 4.459324 32.349706 Ti
  atom 17.691994 4.459324 32.349735 O
  atom 19.698350 2.972883 33.626473 O
  atom 16.415224 2.972883 34.356174 O
  atom 18.421581 4.459324 35.632912 O
  atom 19.698310 2.972883 35.632941 Ti
  atom 16.415247 4.459324 35.632941 Ti
  atom 14.408913 4.459324 35.632970 O
  atom 16.415269 2.972883 36.909708 O
  atom 19.698270 2.972883 37.639409 O
  atom 15.138500 4.459324 38.916147 O
  atom 16.415229 2.972883 38.916176 Ti
  atom 19.698293 4.459324 38.916176 Ti
  atom 17.691958 4.459324 38.916206 O
  atom 19.698315 2.972883 40.192943 O
  atom 16.415189 2.972883 40.922645 O
  atom 18.421546 4.459324 42.199382 O
  atom 19.698275 2.972883 42.199412 Ti
  atom 16.415212 4.459324 42.199412 Ti
  atom 14.408877 4.459324 42.199441 O
  atom 16.415234 2.972883 43.476178 O
  atom 16.415234 2.972883 44.476178 H
  atom 16.415234 0.000000 44.476178 H
  atom 19.698340 0.000000 23.506468 H
  atom 19.698340 2.972883 23.506468 H
  atom 19.698275 2.972883 44.199441 O
  atom 19.698275 0.000000 44.199441 O
  atom 19.698275 2.972883 45.199441 H
  atom 19.698275 0.000000 45.199441 H
  atom 16.415300 0.000000 23.783235 O
  atom 16.415300 0.000000 22.783235 H
  atom 16.415300 2.972883 23.783235 O
  atom 16.415300 2.972883 22.783235 H
  atom 19.698340 5.945765 24.506468 O
  atom 15.138571 7.432206 25.783206 O
  atom 16.415300 5.945765 25.783235 Ti
  atom 19.698363 7.432206 25.783235 Ti
  atom 17.692029 7.432206 25.783265 O
  atom 13.132259 5.945765 27.060002 O
  atom 16.415260 5.945765 27.789704 O
  atom 18.421616 7.432206 29.066441 O
  atom 19.698345 5.945765 29.066471 Ti
  atom 16.415282 7.432206 29.066471 Ti
  atom 14.408948 7.432206 29.066500 O
  atom 16.415305 5.945765 30.343237 O
  atom 19.698305 5.945765 31.072939 O
  atom 15.138535 7.432206 32.349676 O
  atom 16.415264 5.945765 32.349706 Ti
  atom 19.698328 7.432206 32.349706 Ti
  atom 17.691994 7.432206 32.349735 O
  atom 19.698350 5.945765 33.626473 O
  atom 16.415224 5.945765 34.356174 O
  atom 18.421581 7.432206 35.632912 O
  atom 19.698310 5.945765 35.632941 Ti
  atom 16.415247 7.432206 35.632941 Ti
  atom 14.408913 7.432206 35.632970 O
  atom 16.415269 5.945765 36.909708 O
  atom 19.698270 5.945765 37.639409 O
  atom 15.138500 7.432206 38.916147 O
  atom 16.415229 5.945765 38.916176 Ti
  atom 19.698293 7.432206 38.916176 Ti
  atom 17.691958 7.432206 38.916206 O
  atom 19.698315 5.945765 40.192943 O
  atom 16.415189 5.945765 40.922645 O
  atom 18.421546 7.432206 42.199382 O
  atom 19.698275 5.945765 42.199412 Ti
  atom 16.415212 7.432206 42.199412 Ti
  atom 14.408877 7.432206 42.199441 O
  atom 16.415234 5.945765 43.476178 O
  atom 19.698340 8.918648 24.506468 O
  atom 15.138571 10.405089 25.783206 O
  atom 16.415300 8.918648 25.783235 Ti
  atom 19.698363 10.405089 25.783235 Ti
  atom 17.692029 10.405089 25.783265 O
  atom 13.132259 8.918648 27.060002 O
  atom 16.415260 8.918648 27.789704 O
  atom 18.421616 10.405089 29.066441 O
  atom 19.698345 8.918648 29.066471 Ti
  atom 16.415282 10.405089 29.066471 Ti
  atom 14.408948 10.405089 29.066500 O
  atom 16.415305 8.918648 30.343237 O
  atom 19.698305 8.918648 31.072939 O
  atom 15.138535 10.405089 32.349676 O
  atom 16.415264 8.918648 32.349706 Ti
  atom 19.698328 10.405089 32.349706 Ti
  atom 17.691994 10.405089 32.349735 O
  atom 19.698350 8.918648 33.626473 O
  atom 16.415224 8.918648 34.356174 O
  atom 18.421581 10.405089 35.632912 O
  atom 19.698310 8.918648 35.632941 Ti
  atom 16.415247 10.405089 35.632941 Ti
  atom 14.408913 10.405089 35.632970 O
  atom 16.415269 8.918648 36.909708 O
  atom 19.698270 8.918648 37.639409 O
  atom 15.138500 10.405089 38.916147 O
  atom 16.415229 8.918648 38.916176 Ti
  atom 19.698293 10.405089 38.916176 Ti
  atom 17.691958 10.405089 38.916206 O
  atom 19.698315 8.918648 40.192943 O
  atom 16.415189 8.918648 40.922645 O
  atom 18.421546 10.405089 42.199382 O
  atom 19.698275 8.918648 42.199412 Ti
  atom 16.415212 10.405089 42.199412 Ti
  atom 14.408877 10.405089 42.199441 O
  atom 16.415234 8.918648 43.476178 O
  atom 16.415234 8.918648 44.476178 H
  atom 16.415234 5.945765 44.476178 H
  atom 19.698340 5.945765 23.506468 H
  atom 19.698340 8.918648 23.506468 H
  atom 19.698275 8.918648 44.199441 O
  atom 19.698275 5.945765 44.199441 O
  atom 19.698275 8.918648 45.199441 H
  atom 19.698275 5.945765 45.199441 H
  atom 16.415300 5.945765 23.783235 O
  atom 16.415300 5.945765 22.783235 H
  atom 16.415300 8.918648 23.783235 O
  atom 16.415300 8.918648 22.783235 H
  atom 19.698340 11.891530 24.506468 O
  atom 15.138571 13.377971 25.783206 O
  atom 16.415300 11.891530 25.783235 Ti
  atom 19.698363 13.377971 25.783235 Ti
  atom 17.692029 13.377971 25.783265 O
  atom 13.132259 11.891530 27.060002 O
  atom 16.415260 11.891530 27.789704 O
  atom 18.421616 13.377971 29.066441 O
  atom 19.698345 11.891530 29.066471 Ti
  atom 16.415282 13.377971 29.066471 Ti
  atom 14.408948 13.377971 29.066500 O
  atom 16.415305 11.891530 30.343237 O
  atom 19.698305 11.891530 31.072939 O
  atom 15.138535 13.377971 32.349676 O
  atom 16.415264 11.891530 32.349706 Ti
  atom 19.698328 13.377971 32.349706 Ti
  atom 17.691994 13.377971 32.349735 O
  atom 19.698350 11.891530 33.626473 O
  atom 16.415224 11.891530 34.356174 O
  atom 18.421581 13.377971 35.632912 O
  atom 19.698310 11.891530 35.632941 Ti
  atom 16.415247 13.377971 35.632941 Ti
  atom 14.408913 13.377971 35.632970 O
  atom 16.415269 11.891530 36.909708 O
  atom 19.698270 11.891530 37.639409 O
  atom 15.138500 13.377971 38.916147 O
  atom 16.415229 11.891530 38.916176 Ti
  atom 19.698293 13.377971 38.916176 Ti
  atom 17.691958 13.377971 38.916206 O
  atom 19.698315 11.891530 40.192943 O
  atom 16.415189 11.891530 40.922645 O
  atom 18.421546 13.377971 42.199382 O
  atom 19.698275 11.891530 42.199412 Ti
  atom 16.415212 13.377971 42.199412 Ti
  atom 14.408877 13.377971 42.199441 O
  atom 16.415234 11.891530 43.476178 O
  atom 19.698340 14.864413 24.506468 O
  atom 15.138571 16.350854 25.783206 O
  atom 16.415300 14.864413 25.783235 Ti
  atom 19.698363 16.350854 25.783235 Ti
  atom 17.692029 16.350854 25.783265 O
  atom 13.132259 14.864413 27.060002 O
  atom 16.415260 14.864413 27.789704 O
  atom 18.421616 16.350854 29.066441 O
  atom 19.698345 14.864413 29.066471 Ti
  atom 16.415282 16.350854 29.066471 Ti
  atom 14.408948 16.350854 29.066500 O
  atom 16.415305 14.864413 30.343237 O
  atom 19.698305 14.864413 31.072939 O
  atom 15.138535 16.350854 32.349676 O
  atom 16.415264 14.864413 32.349706 Ti
  atom 19.698328 16.350854 32.349706 Ti
  atom 17.691994 16.350854 32.349735 O
  atom 19.698350 14.864413 33.626473 O
  atom 16.415224 14.864413 34.356174 O
  atom 18.421581 16.350854 35.632912 O
  atom 19.698310 14.864413 35.632941 Ti
  atom 16.415247 16.350854 35.632941 Ti
  atom 14.408913 16.350854 35.632970 O
  atom 16.415269 14.864413 36.909708 O
  atom 19.698270 14.864413 37.639409 O
  atom 15.138500 16.350854 38.916147 O
  atom 16.415229 14.864413 38.916176 Ti
  atom 19.698293 16.350854 38.916176 Ti
  atom 17.691958 16.350854 38.916206 O
  atom 19.698315 14.864413 40.192943 O
  atom 16.415189 14.864413 40.922645 O
  atom 18.421546 16.350854 42.199382 O
  atom 19.698275 14.864413 42.199412 Ti
  atom 16.415212 16.350854 42.199412 Ti
  atom 14.408877 16.350854 42.199441 O
  atom 16.415234 14.864413 43.476178 O
  atom 16.415234 14.864413 44.476178 H
  atom 16.415234 11.891530 44.476178 H
  atom 19.698340 11.891530 23.506468 H
  atom 19.698340 14.864413 23.506468 H
  atom 19.698275 14.864413 44.199441 O
  atom 19.698275 11.891530 44.199441 O
  atom 19.698275 14.864413 45.199441 H
  atom 19.698275 11.891530 45.199441 H
  atom 16.415300 11.891530 23.783235 O
  atom 16.415300 11.891530 22.783235 H
  atom 16.415300 14.864413 23.783235 O
  atom 16.415300 14.864413 22.783235 H
  
  -----------------------------------------------------------------------
  Completed first pass over input file geometry.in .
  -----------------------------------------------------------------------
  

  Basic array size parameters:
  | Number of species                 :        4
  | Number of atoms                   :      756
  | Number of lattice vectors         :        3
  | Max. basis fn. angular momentum   :        4
  | Max. atomic/ionic basis occupied n:        4
  | Max. number of basis fn. types    :        3
  | Max. radial fns per species/type  :       18
  | Max. logarithmic grid size        :     1383
  | Max. radial integration grid size :       73
  | Max. angular integration grid size:      434
  | Max. angular grid division number :        8
  | Radial grid for Hartree potential :     1383
  | Number of spin channels           :        2

------------------------------------------------------------
          Reading file control.in.
------------------------------------------------------------
  XC: Using PBE gradient-corrected functionals.
  Scalar relativistic treatment of kinetic energy: ZORA.
  Threshold value for ZORA:   0.100000E-11
  Kohn-Sham eigenvalues and eigenfunctions calculated by LAPACK via ELSI.
  Found k-point grid:         3         3         1
  Spin treatment: Spin density functional theory - collinear spins.
  Initial spin moment per atom:   0.0000
  Charged system requested: Charge =   0.100000E+00.
  Writing restart information to file restart000
  Mulliken charge analysis will be performed and summarised to the main output.
  Full Mulliken charge analysis will be written to file 'Mulliken.out'.
 
  Reading configuration options for species Ti                  .
  | Found nuclear charge :  22.0000
  | Found atomic mass :    47.8670000000000      amu
  | Found l_max for Hartree potential  :   4
  | Found cutoff potl. onset [A], width [A], scale factor :    3.50000    1.50000    1.00000
  | Threshold for basis-dependent cutoff potential is   0.100000E-03
  | Found data for basic radial integration grid :    48 points, outermost radius =    5.000 A
  | Found multiplier for basic radial grid :   1
  | Found angular grid specification: user-specified.
  | Specified grid contains     5 separate shells.
  | Check grid settings after all constraints further below.
  | Found free-atom valence shell :  4 s   2.000
  | Found free-atom valence shell :  3 p   6.000
  | Found free-atom valence shell :  3 d   2.000
  | Found free-ion valence shell :  4 s   1.000
  | Found free-ion valence shell :  3 p   6.000
  | Found free-ion valence shell :  3 d   1.000
  | Found hydrogenic basis function :  4 f   8.000
  | Found hydrogenic basis function :  3 d   2.700
  | Found ionic basis function :  4 p , default cutoff radius.
  | Found ionic basis function :  4 s , default cutoff radius.
 | Encountered keyword species, ending the description of species Ti                  .
  Species Ti                  : Missing cutoff potential type.
  Defaulting to exp(1/x)/(1-x)^2 type cutoff potential.
  Species Ti: No 'logarithmic' tag. Using default grid for free atom:
  | Default logarithmic grid data [bohr] : 0.1000E-03 0.1000E+03 0.1012E+01
  | Will include ionic basis functions of  2.0-fold positive Ti                   ion.
  Species Ti: On-site basis accuracy parameter (for Gram-Schmidt orthonormalisation) not specified.
  Using default value basis_acc =  0.1000000E-03.
  Species Ti                  : Using default innermost maximum threshold i_radial=  2 for radial functions.
  Species Ti                  : Default cutoff onset for free atom density etc. : 0.35000000E+01 AA.
  Species Ti                  : Basic radial grid will be enhanced according to radial_multiplier =   1, to contain    48 grid points.
 
  Reading configuration options for species O                   .
  | Found nuclear charge :   8.0000
  | Found atomic mass :    15.9994000000000      amu
  | Found l_max for Hartree potential  :   4
  | Found cutoff potl. onset [A], width [A], scale factor :    3.50000    1.50000    1.00000
  | Threshold for basis-dependent cutoff potential is   0.100000E-03
  | Found data for basic radial integration grid :    36 points, outermost radius =    5.000 A
  | Found multiplier for basic radial grid :   1
  | Found angular grid specification: user-specified.
  | Specified grid contains     5 separate shells.
  | Check grid settings after all constraints further below.
  | Found free-atom valence shell :  2 s   2.000
  | Found free-atom valence shell :  2 p   4.000
  | Found free-ion valence shell :  2 s   1.000
  | Found free-ion valence shell :  2 p   3.000
  | Found hydrogenic basis function :  2 p   1.800
  | Found hydrogenic basis function :  3 d   7.600
  | Found hydrogenic basis function :  3 s   6.400
 | Encountered keyword species, ending the description of species O                   .
  Species O                   : Missing cutoff potential type.
  Defaulting to exp(1/x)/(1-x)^2 type cutoff potential.
  Species O : No 'logarithmic' tag. Using default grid for free atom:
  | Default logarithmic grid data [bohr] : 0.1000E-03 0.1000E+03 0.1012E+01
  Species O : On-site basis accuracy parameter (for Gram-Schmidt orthonormalisation) not specified.
  Using default value basis_acc =  0.1000000E-03.
  Species O                   : Using default innermost maximum threshold i_radial=  2 for radial functions.
  Species O                   : Default cutoff onset for free atom density etc. : 0.35000000E+01 AA.
  Species O                   : Basic radial grid will be enhanced according to radial_multiplier =   1, to contain    36 grid points.
 
  Reading configuration options for species O1                  .
  | Found nuclear charge :   8.1000
  | Found atomic mass :    15.9994000000000      amu
  | Found l_max for Hartree potential  :   6
  | Found cutoff potl. onset [A], width [A], scale factor :    4.00000    2.00000    1.00000
  | Threshold for basis-dependent cutoff potential is   0.100000E-03
  | Found data for basic radial integration grid :    36 points, outermost radius =    7.000 A
  | Found multiplier for basic radial grid :   2
  | Found angular grid specification: user-specified.
  | Specified grid contains     6 separate shells.
  | Check grid settings after all constraints further below.
  | Found free-atom valence shell :  2 s   2.000
  | Found free-atom valence shell :  2 p   4.100
  | Found free-ion valence shell :  2 s   1.000
  | Found free-ion valence shell :  2 p   3.000
  | Found hydrogenic basis function :  2 p   1.800
  | Found hydrogenic basis function :  3 d   7.600
  | Found hydrogenic basis function :  3 s   6.400
  | Found hydrogenic basis function :  4 f  11.600
  | Found hydrogenic basis function :  3 p   6.200
  | Found hydrogenic basis function :  3 d   5.600
  | Found hydrogenic basis function :  5 g  17.600
  | Found hydrogenic basis function :  1 s   0.750
  | Found ionic basis function :  2 p , default cutoff radius.
  | Found hydrogenic basis function :  4 f  10.800
  | Found hydrogenic basis function :  4 d   4.700
  | Found hydrogenic basis function :  2 s   6.800
  | Found hydrogenic basis function :  1 s  12.000
  | Found hydrogenic basis function :  1 s  10.000
  | Found hydrogenic basis function :  1 s   6.000
  | Found hydrogenic basis function :  2 s  10.000
  | Found hydrogenic basis function :  2 p   8.000
  | Found hydrogenic basis function :  2 p   6.000
  | Found hydrogenic basis function :  3 d   8.000
 | Encountered keyword species, ending the description of species O1                  .
  Species O1                  : Missing cutoff potential type.
  Defaulting to exp(1/x)/(1-x)^2 type cutoff potential.
  Species O1: No 'logarithmic' tag. Using default grid for free atom:
  | Default logarithmic grid data [bohr] : 0.1000E-03 0.1000E+03 0.1012E+01
  | Will include ionic basis functions of  2.1-fold positive O1                   ion.
  Species O1: On-site basis accuracy parameter (for Gram-Schmidt orthonormalisation) not specified.
  Using default value basis_acc =  0.1000000E-03.
  Species O1                  : Using default innermost maximum threshold i_radial=  2 for radial functions.
  Species O1                  : Default cutoff onset for free atom density etc. : 0.40000000E+01 AA.
  Species O1                  : Basic radial grid will be enhanced according to radial_multiplier =   2, to contain    73 grid points.
 
  Reading configuration options for species H                   .
  | Found nuclear charge :   1.0000
  | Found atomic mass :    1.00794000000000      amu
  | Found l_max for Hartree potential  :   4
  | Found cutoff potl. onset [A], width [A], scale factor :    3.50000    1.50000    1.00000
  | Threshold for basis-dependent cutoff potential is   0.100000E-03
  | Found data for basic radial integration grid :    24 points, outermost radius =    5.000 A
  | Found multiplier for basic radial grid :   1
  | Found angular grid specification: user-specified.
  | Specified grid contains     5 separate shells.
  | Check grid settings after all constraints further below.
  | Found free-atom valence shell :  1 s   1.000
  | Found free-ion valence shell :  1 s   0.500
  | Found hydrogenic basis function :  2 s   2.100
  | Found hydrogenic basis function :  2 p   3.500
  Species H                   : Missing cutoff potential type.
  Defaulting to exp(1/x)/(1-x)^2 type cutoff potential.
  Species H : No 'logarithmic' tag. Using default grid for free atom:
  | Default logarithmic grid data [bohr] : 0.1000E-03 0.1000E+03 0.1012E+01
  Species H : On-site basis accuracy parameter (for Gram-Schmidt orthonormalisation) not specified.
  Using default value basis_acc =  0.1000000E-03.
  Species H                   : Using default innermost maximum threshold i_radial=  2 for radial functions.
  Species H                   : Default cutoff onset for free atom density etc. : 0.35000000E+01 AA.
  Species H                   : Basic radial grid will be enhanced according to radial_multiplier =   1, to contain    24 grid points.
 
  Finished reading input file 'control.in'.
 
------------------------------------------------------------


------------------------------------------------------------
          Reading geometry description geometry.in.
------------------------------------------------------------
  | The smallest distance between any two atoms is         1.00000000 AA.
  | The first atom of this pair is atom number                    324 .
  | The second atom of this pair is atom number                   325 .
  | Wigner-Seitz cell of the first atom image           0     0     0 .
  | (The Wigner-Seitz cell of the second atom is 0 0 0  by definition.)

  Symmetry information by spglib:
  | Precision set to  0.1E-04
  | Number of Operations  : 2
  | Space group           : 6
  | International         : Pm
  | Schoenflies           : Cs^1
  Input structure read successfully.
  The structure contains      756 atoms,  and a total of       8568.000 electrons.

  Input geometry:
  | Unit cell:
  |       19.69838100        0.00000000        0.00000000
  |        0.00000000       17.83729500        0.00000000
  |        0.00000000        0.00000000       66.70588000
  | Atomic structure:
  |       Atom                x [A]            y [A]            z [A]
  |    1: Species O             6.56608600        0.00000000       24.50646800
  |    2: Species O             2.00631700        1.48644100       25.78320600
  |    3: Species Ti            3.28304600        0.00000000       25.78323500
  |    4: Species Ti            6.56610900        1.48644100       25.78323500
  |    5: Species O             4.55977500        1.48644100       25.78326500
  |    6: Species O             0.00000500        0.00000000       27.06000200
  |    7: Species O             3.28300600        0.00000000       27.78970400
  |    8: Species O             5.28936200        1.48644100       29.06644100
  |    9: Species Ti            6.56609100        0.00000000       29.06647100
  |   10: Species Ti            3.28302800        1.48644100       29.06647100
  |   11: Species O             1.27669400        1.48644100       29.06650000
  |   12: Species O             3.28305100        0.00000000       30.34323700
  |   13: Species O             6.56605100        0.00000000       31.07293900
  |   14: Species O             2.00628100        1.48644100       32.34967600
  |   15: Species Ti            3.28301000        0.00000000       32.34970600
  |   16: Species Ti            6.56607400        1.48644100       32.34970600
  |   17: Species O             4.55974000        1.48644100       32.34973500
  |   18: Species O             6.56609600        0.00000000       33.62647300
  |   19: Species O             3.28297000        0.00000000       34.35617400
  |   20: Species O             5.28932700        1.48644100       35.63291200
  |   21: Species Ti            6.56605600        0.00000000       35.63294100
  |   22: Species Ti            3.28299300        1.48644100       35.63294100
  |   23: Species O             1.27665900        1.48644100       35.63297000
  |   24: Species O             3.28301500        0.00000000       36.90970800
  |   25: Species O             6.56601600        0.00000000       37.63940900
  |   26: Species O             2.00624600        1.48644100       38.91614700
  |   27: Species Ti            3.28297500        0.00000000       38.91617600
  |   28: Species Ti            6.56603900        1.48644100       38.91617600
  |   29: Species O             4.55970400        1.48644100       38.91620600
  |   30: Species O             6.56606100        0.00000000       40.19294300
  |   31: Species O             3.28293500        0.00000000       40.92264500
  |   32: Species O             5.28929200        1.48644100       42.19938200
  |   33: Species Ti            6.56602100        0.00000000       42.19941200
  |   34: Species Ti            3.28295800        1.48644100       42.19941200
  |   35: Species O             1.27662300        1.48644100       42.19944100
  |   36: Species O             3.28298000        0.00000000       43.47617800
  |   37: Species O             6.56608600        2.97288300       24.50646800
  |   38: Species O             2.00631700        4.45932400       25.78320600
  |   39: Species Ti            3.28304600        2.97288300       25.78323500
  |   40: Species Ti            6.56610900        4.45932400       25.78323500
  |   41: Species O             4.55977500        4.45932400       25.78326500
  |   42: Species O             0.00000500        2.97288300       27.06000200
  |   43: Species O             3.28300600        2.97288300       27.78970400
  |   44: Species O             5.28936200        4.45932400       29.06644100
  |   45: Species Ti            6.56609100        2.97288300       29.06647100
  |   46: Species Ti            3.28302800        4.45932400       29.06647100
  |   47: Species O             1.27669400        4.45932400       29.06650000
  |   48: Species O             3.28305100        2.97288300       30.34323700
  |   49: Species O             6.56605100        2.97288300       31.07293900
  |   50: Species O             2.00628100        4.45932400       32.34967600
  |   51: Species Ti            3.28301000        2.97288300       32.34970600
  |   52: Species Ti            6.56607400        4.45932400       32.34970600
  |   53: Species O             4.55974000        4.45932400       32.34973500
  |   54: Species O             6.56609600        2.97288300       33.62647300
  |   55: Species O             3.28297000        2.97288300       34.35617400
  |   56: Species O             5.28932700        4.45932400       35.63291200
  |   57: Species Ti            6.56605600        2.97288300       35.63294100
  |   58: Species Ti            3.28299300        4.45932400       35.63294100
  |   59: Species O             1.27665900        4.45932400       35.63297000
  |   60: Species O             3.28301500        2.97288300       36.90970800
  |   61: Species O             6.56601600        2.97288300       37.63940900
  |   62: Species O             2.00624600        4.45932400       38.91614700
  |   63: Species Ti            3.28297500        2.97288300       38.91617600
  |   64: Species Ti            6.56603900        4.45932400       38.91617600
  |   65: Species O             4.55970400        4.45932400       38.91620600
  |   66: Species O             6.56606100        2.97288300       40.19294300
  |   67: Species O             3.28293500        2.97288300       40.92264500
  |   68: Species O             5.28929200        4.45932400       42.19938200
  |   69: Species Ti            6.56602100        2.97288300       42.19941200
  |   70: Species Ti            3.28295800        4.45932400       42.19941200
  |   71: Species O             1.27662300        4.45932400       42.19944100
  |   72: Species O             3.28298000        2.97288300       43.47617800
  |   73: Species H             3.28298000        2.97288300       44.47617800
  |   74: Species H             3.28298000        0.00000000       44.47617800
  |   75: Species H             6.56608600        0.00000000       23.50646800
  |   76: Species H             6.56608600        2.97288300       23.50646800
  |   77: Species O             6.56602100        2.97288300       44.19944100
  |   78: Species O             6.56602100        0.00000000       44.19944100
  |   79: Species H             6.56602100        2.97288300       45.19944100
  |   80: Species H             6.56602100        0.00000000       45.19944100
  |   81: Species O             3.28304600        0.00000000       23.78323500
  |   82: Species H             3.28304600        0.00000000       22.78323500
  |   83: Species O             3.28304600        2.97288300       23.78323500
  |   84: Species H             3.28304600        2.97288300       22.78323500
  |   85: Species O             6.56608600        5.94576500       24.50646800
  |   86: Species O             2.00631700        7.43220600       25.78320600
  |   87: Species Ti            3.28304600        5.94576500       25.78323500
  |   88: Species Ti            6.56610900        7.43220600       25.78323500
  |   89: Species O             4.55977500        7.43220600       25.78326500
  |   90: Species O             0.00000500        5.94576500       27.06000200
  |   91: Species O             3.28300600        5.94576500       27.78970400
  |   92: Species O             5.28936200        7.43220600       29.06644100
  |   93: Species Ti            6.56609100        5.94576500       29.06647100
  |   94: Species Ti            3.28302800        7.43220600       29.06647100
  |   95: Species O             1.27669400        7.43220600       29.06650000
  |   96: Species O             3.28305100        5.94576500       30.34323700
  |   97: Species O             6.56605100        5.94576500       31.07293900
  |   98: Species O             2.00628100        7.43220600       32.34967600
  |   99: Species Ti            3.28301000        5.94576500       32.34970600
  |  100: Species Ti            6.56607400        7.43220600       32.34970600
  |  101: Species O             4.55974000        7.43220600       32.34973500
  |  102: Species O             6.56609600        5.94576500       33.62647300
  |  103: Species O             3.28297000        5.94576500       34.35617400
  |  104: Species O             5.28932700        7.43220600       35.63291200
  |  105: Species Ti            6.56605600        5.94576500       35.63294100
  |  106: Species Ti            3.28299300        7.43220600       35.63294100
  |  107: Species O             1.27665900        7.43220600       35.63297000
  |  108: Species O             3.28301500        5.94576500       36.90970800
  |  109: Species O             6.56601600        5.94576500       37.63940900
  |  110: Species O             2.00624600        7.43220600       38.91614700
  |  111: Species Ti            3.28297500        5.94576500       38.91617600
  |  112: Species Ti            6.56603900        7.43220600       38.91617600
  |  113: Species O             4.55970400        7.43220600       38.91620600
  |  114: Species O             6.56606100        5.94576500       40.19294300
  |  115: Species O             3.28293500        5.94576500       40.92264500
  |  116: Species O             5.28929200        7.43220600       42.19938200
  |  117: Species Ti            6.56602100        5.94576500       42.19941200
  |  118: Species Ti            3.28295800        7.43220600       42.19941200
  |  119: Species O             1.27662300        7.43220600       42.19944100
  |  120: Species O             3.28298000        5.94576500       43.47617800
  |  121: Species O             6.56608600        8.91864800       24.50646800
  |  122: Species O             2.00631700       10.40508900       25.78320600
  |  123: Species Ti            3.28304600        8.91864800       25.78323500
  |  124: Species Ti            6.56610900       10.40508900       25.78323500
  |  125: Species O             4.55977500       10.40508900       25.78326500
  |  126: Species O             0.00000500        8.91864800       27.06000200
  |  127: Species O             3.28300600        8.91864800       27.78970400
  |  128: Species O             5.28936200       10.40508900       29.06644100
  |  129: Species Ti            6.56609100        8.91864800       29.06647100
  |  130: Species Ti            3.28302800       10.40508900       29.06647100
  |  131: Species O             1.27669400       10.40508900       29.06650000
  |  132: Species O             3.28305100        8.91864800       30.34323700
  |  133: Species O             6.56605100        8.91864800       31.07293900
  |  134: Species O             2.00628100       10.40508900       32.34967600
  |  135: Species Ti            3.28301000        8.91864800       32.34970600
  |  136: Species Ti            6.56607400       10.40508900       32.34970600
  |  137: Species O             4.55974000       10.40508900       32.34973500
  |  138: Species O             6.56609600        8.91864800       33.62647300
  |  139: Species O             3.28297000        8.91864800       34.35617400
  |  140: Species O             5.28932700       10.40508900       35.63291200
  |  141: Species Ti            6.56605600        8.91864800       35.63294100
  |  142: Species Ti            3.28299300       10.40508900       35.63294100
  |  143: Species O             1.27665900       10.40508900       35.63297000
  |  144: Species O             3.28301500        8.91864800       36.90970800
  |  145: Species O             6.56601600        8.91864800       37.63940900
  |  146: Species O             2.00624600       10.40508900       38.91614700
  |  147: Species Ti            3.28297500        8.91864800       38.91617600
  |  148: Species Ti            6.56603900       10.40508900       38.91617600
  |  149: Species O             4.55970400       10.40508900       38.91620600
  |  150: Species O             6.56606100        8.91864800       40.19294300
  |  151: Species O             3.28293500        8.91864800       40.92264500
  |  152: Species O             5.28929200       10.40508900       42.19938200
  |  153: Species Ti            6.56602100        8.91864800       42.19941200
  |  154: Species Ti            3.28295800       10.40508900       42.19941200
  |  155: Species O             1.27662300       10.40508900       42.19944100
  |  156: Species O             3.28298000        8.91864800       43.47617800
  |  157: Species H             3.28298000        8.91864800       44.47617800
  |  158: Species H             3.28298000        5.94576500       44.47617800
  |  159: Species H             6.56608600        5.94576500       23.50646800
  |  160: Species H             6.56608600        8.91864800       23.50646800
  |  161: Species O             6.56602100        8.91864800       44.19944100
  |  162: Species O             6.56602100        5.94576500       44.19944100
  |  163: Species H             6.56602100        8.91864800       45.19944100
  |  164: Species H             6.56602100        5.94576500       45.19944100
  |  165: Species O             3.28304600        5.94576500       23.78323500
  |  166: Species H             3.28304600        5.94576500       22.78323500
  |  167: Species O             3.28304600        8.91864800       23.78323500
  |  168: Species H             3.28304600        8.91864800       22.78323500
  |  169: Species O             6.56608600       11.89153000       24.50646800
  |  170: Species O             2.00631700       13.37797100       25.78320600
  |  171: Species Ti            3.28304600       11.89153000       25.78323500
  |  172: Species Ti            6.56610900       13.37797100       25.78323500
  |  173: Species O             4.55977500       13.37797100       25.78326500
  |  174: Species O             0.00000500       11.89153000       27.06000200
  |  175: Species O             3.28300600       11.89153000       27.78970400
  |  176: Species O             5.28936200       13.37797100       29.06644100
  |  177: Species Ti            6.56609100       11.89153000       29.06647100
  |  178: Species Ti            3.28302800       13.37797100       29.06647100
  |  179: Species O             1.27669400       13.37797100       29.06650000
  |  180: Species O             3.28305100       11.89153000       30.34323700
  |  181: Species O             6.56605100       11.89153000       31.07293900
  |  182: Species O             2.00628100       13.37797100       32.34967600
  |  183: Species Ti            3.28301000       11.89153000       32.34970600
  |  184: Species Ti            6.56607400       13.37797100       32.34970600
  |  185: Species O             4.55974000       13.37797100       32.34973500
  |  186: Species O             6.56609600       11.89153000       33.62647300
  |  187: Species O             3.28297000       11.89153000       34.35617400
  |  188: Species O             5.28932700       13.37797100       35.63291200
  |  189: Species Ti            6.56605600       11.89153000       35.63294100
  |  190: Species Ti            3.28299300       13.37797100       35.63294100
  |  191: Species O             1.27665900       13.37797100       35.63297000
  |  192: Species O             3.28301500       11.89153000       36.90970800
  |  193: Species O             6.56601600       11.89153000       37.63940900
  |  194: Species O             2.00624600       13.37797100       38.91614700
  |  195: Species Ti            3.28297500       11.89153000       38.91617600
  |  196: Species Ti            6.56603900       13.37797100       38.91617600
  |  197: Species O             4.55970400       13.37797100       38.91620600
  |  198: Species O             6.56606100       11.89153000       40.19294300
  |  199: Species O             3.28293500       11.89153000       40.92264500
  |  200: Species O             5.28929200       13.37797100       42.19938200
  |  201: Species Ti            6.56602100       11.89153000       42.19941200
  |  202: Species Ti            3.28295800       13.37797100       42.19941200
  |  203: Species O             1.27662300       13.37797100       42.19944100
  |  204: Species O             3.28298000       11.89153000       43.47617800
  |  205: Species O             6.56608600       14.86441300       24.50646800
  |  206: Species O             2.00631700       16.35085400       25.78320600
  |  207: Species Ti            3.28304600       14.86441300       25.78323500
  |  208: Species Ti            6.56610900       16.35085400       25.78323500
  |  209: Species O             4.55977500       16.35085400       25.78326500
  |  210: Species O             0.00000500       14.86441300       27.06000200
  |  211: Species O             3.28300600       14.86441300       27.78970400
  |  212: Species O             5.28936200       16.35085400       29.06644100
  |  213: Species Ti            6.56609100       14.86441300       29.06647100
  |  214: Species Ti            3.28302800       16.35085400       29.06647100
  |  215: Species O             1.27669400       16.35085400       29.06650000
  |  216: Species O             3.28305100       14.86441300       30.34323700
  |  217: Species O             6.56605100       14.86441300       31.07293900
  |  218: Species O             2.00628100       16.35085400       32.34967600
  |  219: Species Ti            3.28301000       14.86441300       32.34970600
  |  220: Species Ti            6.56607400       16.35085400       32.34970600
  |  221: Species O             4.55974000       16.35085400       32.34973500
  |  222: Species O             6.56609600       14.86441300       33.62647300
  |  223: Species O             3.28297000       14.86441300       34.35617400
  |  224: Species O             5.28932700       16.35085400       35.63291200
  |  225: Species Ti            6.56605600       14.86441300       35.63294100
  |  226: Species Ti            3.28299300       16.35085400       35.63294100
  |  227: Species O             1.27665900       16.35085400       35.63297000
  |  228: Species O             3.28301500       14.86441300       36.90970800
  |  229: Species O             6.56601600       14.86441300       37.63940900
  |  230: Species O             2.00624600       16.35085400       38.91614700
  |  231: Species Ti            3.28297500       14.86441300       38.91617600
  |  232: Species Ti            6.56603900       16.35085400       38.91617600
  |  233: Species O             4.55970400       16.35085400       38.91620600
  |  234: Species O             6.56606100       14.86441300       40.19294300
  |  235: Species O             3.28293500       14.86441300       40.92264500
  |  236: Species O             5.28929200       16.35085400       42.19938200
  |  237: Species Ti            6.56602100       14.86441300       42.19941200
  |  238: Species Ti            3.28295800       16.35085400       42.19941200
  |  239: Species O             1.27662300       16.35085400       42.19944100
  |  240: Species O             3.28298000       14.86441300       43.47617800
  |  241: Species H             3.28298000       14.86441300       44.47617800
  |  242: Species H             3.28298000       11.89153000       44.47617800
  |  243: Species H             6.56608600       11.89153000       23.50646800
  |  244: Species H             6.56608600       14.86441300       23.50646800
  |  245: Species O             6.56602100       14.86441300       44.19944100
  |  246: Species O             6.56602100       11.89153000       44.19944100
  |  247: Species H             6.56602100       14.86441300       45.19944100
  |  248: Species H             6.56602100       11.89153000       45.19944100
  |  249: Species O             3.28304600       11.89153000       23.78323500
  |  250: Species H             3.28304600       11.89153000       22.78323500
  |  251: Species O             3.28304600       14.86441300       23.78323500
  |  252: Species H             3.28304600       14.86441300       22.78323500
  |  253: Species O            13.13221300        0.00000000       24.50646800
  |  254: Species O             8.57244400        1.48644100       25.78320600
  |  255: Species Ti            9.84917300        0.00000000       25.78323500
  |  256: Species Ti           13.13223600        1.48644100       25.78323500
  |  257: Species O            11.12590200        1.48644100       25.78326500
  |  258: Species O             6.56613200        0.00000000       27.06000200
  |  259: Species O             9.84913300        0.00000000       27.78970400
  |  260: Species O            11.85548900        1.48644100       29.06644100
  |  261: Species Ti           13.13221800        0.00000000       29.06647100
  |  262: Species Ti            9.84915500        1.48644100       29.06647100
  |  263: Species O             7.84282100        1.48644100       29.06650000
  |  264: Species O             9.84917800        0.00000000       30.34323700
  |  265: Species O            13.13217800        0.00000000       31.07293900
  |  266: Species O             8.57240800        1.48644100       32.34967600
  |  267: Species Ti            9.84913700        0.00000000       32.34970600
  |  268: Species Ti           13.13220100        1.48644100       32.34970600
  |  269: Species O            11.12586700        1.48644100       32.34973500
  |  270: Species O            13.13222300        0.00000000       33.62647300
  |  271: Species O             9.84909700        0.00000000       34.35617400
[...]
  | Occupation number:      0.00000000
  | K-point:       1 at    0.000000    0.000000    0.000000 (in units of recip. lattice)
  | Spin channel:        1

  ESTIMATED overall HOMO-LUMO gap:      0.58081752 eV between HOMO at k-point 1 and LUMO at k-point 1
  | This appears to be a direct band gap.
  The gap value is above 0.2 eV. Unless you are using a very sparse k-point grid,
  this system is most likely an insulator or a semiconductor.

  Total energy components:
  | Sum of eigenvalues            :     -129639.72020194 Ha    -3527676.27288728 eV
  | XC energy correction          :      -13142.03708248 Ha     -357613.02416454 eV
  | XC potential correction       :       16989.77830732 Ha      462315.39009020 eV
  | Free-atom electrostatic energy:      -93652.17941106 Ha    -2548405.46321729 eV
  | Hartree energy correction     :        -806.13431826 Ha      -21936.03089291 eV
  | Entropy correction            :          -0.00000000 Ha          -0.00000000 eV
  | ---------------------------
  | Total energy                  :     -220250.29270642 Ha    -5993315.40107182 eV
  | Total energy, T -> 0          :     -220250.29270642 Ha    -5993315.40107182 eV  <-- do not rely on this value for anything but (periodic) metals
  | Electronic free energy        :     -220250.29270642 Ha    -5993315.40107182 eV

  Derived energy quantities:
  | Kinetic energy                :      221731.74378953 Ha     6033627.73611238 eV
  | Electrostatic energy          :     -428839.99941347 Ha   -11669330.11301965 eV
  | Energy correction for multipole
  | error in Hartree potential    :           2.05706823 Ha          55.97567463 eV
  | Sum of eigenvalues per atom                           :       -4666.23845620 eV
  | Total energy (T->0) per atom                          :       -7927.66587443 eV  <-- do not rely on this value for anything but (periodic) metals
  | Electronic free energy per atom                       :       -7927.66587443 eV
  Evaluating new KS density using the density matrix
  Evaluating density matrix
  Evaluating density matrix
  Time summed over all CPUs for getting density from density matrix: real work     1535.775 s, elapsed     2037.556 s
  Integration grid: deviation in total charge (<rho> - N_e) =  -7.185008E-09
  | <rho_up-rho_dn> = N_up-N_dn =      0.0000; <|rho_up-rho_dn|> =      0.0000

  Self-consistency convergence accuracy:
  | Change of charge/spin density :  0.2722E-01  0.9758E-12
  | Change of unmixed KS charge/spin density :  0.3647E+00  0.8515E-12
  | Change of sum of eigenvalues  :  0.1049E+03 eV
  | Change of total energy        :  0.9857E-01 eV


------------------------------------------------------------
  End self-consistency iteration #    11       :  max(cpu_time)    wall_clock(cpu1)
  | Time for this iteration                     :     4983.747 s        4983.874 s
  | Charge density update                       :      186.101 s         186.105 s
  | Density mixing & preconditioning            :      103.733 s         103.736 s
  | Hartree multipole update                    :        0.068 s           0.069 s
  | Hartree multipole summation                 :        5.992 s           5.992 s
  | Integration                                 :       46.782 s          46.783 s
  | Solution of K.-S. eqns.                     :     4641.043 s        4641.165 s
  | Total energy evaluation                     :        0.003 s           0.010 s

  Partial memory accounting:
  | Current value for overall tracked memory usage:
  |   Minimum:      779.498 MB (on task 55)
  |   Maximum:     3691.823 MB (on task  3)
  |   Average:     1007.054 MB
  | Peak value for overall tracked memory usage:
  |   Minimum:     3642.205 MB (on task 43 after allocating kdm)
  |   Maximum:    16512.248 MB (on task  3 after allocating eval_tmp)
  |   Average:     4648.382 MB
  | Largest tracked array allocation so far:
  |   Minimum:     2848.891 MB (KS_eigenvector_complex on task  0)
  |   Maximum:     2912.273 MB (KS_eigenvector_complex on task  1)
  |   Average:     2853.842 MB
  Note:  These values currently only include a subset of arrays which are explicitly tracked.
  The "true" memory usage will be greater.
------------------------------------------------------------

------------------------------------------------------------
          Begin self-consistency iteration #   12

  Date     :  20241215, Time     :  102906.087
------------------------------------------------------------
  Pulay mixing of updated and previous charge densities.
  Available memory per node after mixing [GB]:    932.00
  Renormalizing the density to the exact electron count on the 3D integration grid.
  | Formal number of electrons (from input files) :    8568.0000000000
  | Integrated number of electrons on 3D grid     :    8568.0341558335
  | Charge integration error                      :       0.0341558335
  | Normalization factor for density and gradient :       0.9999960136

  Evaluating partitioned Hartree potential by multipole expansion.
  | Original multipole sum: apparent total charge =   0.100000E+00
  | Sum of charges compensated after spline to logarithmic grids =   0.248048E-02
  | Analytical far-field extrapolation by fixed multipoles:
  | Hartree multipole sum: apparent total charge =   0.100000E+00
  Summing up the Hartree potential.
  Time summed over all CPUs for potential: real work        3.637 s, elapsed        5.506 s
  | RMS charge density error from multipole expansion :   0.191174E+00
  | Average real-space part of the electrostatic potential :      0.21862392 eV

  Integrating Hamiltonian matrix: batch-based integration.
  Time summed over all CPUs for integration: real work     2074.325 s, elapsed     2946.777 s => Consider using load balancing!

  Updating Kohn-Sham eigenvalues and eigenvectors using ELSI and the (modified) LAPACK eigensolver.

  Obtaining occupation numbers and electronic chemical potential using ELSI.
  | Note that, for insulating systems, the printed 'chemical potential' value is not uniquely defined.
  | It can be anywhere in the energy gap, as long as it correctly separates occupied and unoccupied states.
  | In systems with a gap, the physically relevant chemical potential is the VBM or HOMO.

  | Chemical potential (Fermi level):    -5.01073748 eV
  Current spin moment of the entire structure :
  | N = N_up - N_down (sum over all k points):         0.00000
  | S (sum over all k points)                :         0.00000

  What follows are estimated values for band gap, HOMO, LUMO, etc.
  | They are estimated on a discrete k-point grid and not necessarily exact.
  | For converged numbers, create a DOS and/or band structure plot on a denser k-grid.

  Highest occupied state (VBM) at     -5.04954324 eV (relative to internal zero)
  | Occupation number:      0.99999998
  | K-point:       1 at    0.000000    0.000000    0.000000 (in units of recip. lattice)
  | Spin channel:        2

  Lowest unoccupied state (CBM) at    -4.44520285 eV (relative to internal zero)
  | Occupation number:      0.00000000
  | K-point:       1 at    0.000000    0.000000    0.000000 (in units of recip. lattice)
  | Spin channel:        1

  ESTIMATED overall HOMO-LUMO gap:      0.60434039 eV between HOMO at k-point 1 and LUMO at k-point 1
  | This appears to be a direct band gap.
  The gap value is above 0.2 eV. Unless you are using a very sparse k-point grid,
  this system is most likely an insulator or a semiconductor.

  Total energy components:
  | Sum of eigenvalues            :     -129635.98499817 Ha    -3527574.63282141 eV
  | XC energy correction          :      -13142.18639985 Ha     -357617.08729710 eV
  | XC potential correction       :       16989.96980246 Ha      462320.60093823 eV
  | Free-atom electrostatic energy:      -93652.17941106 Ha    -2548405.46321729 eV
  | Hartree energy correction     :        -809.90687255 Ha      -22038.68731820 eV
  | Entropy correction            :          -0.00000000 Ha          -0.00000000 eV
  | ---------------------------
  | Total energy                  :     -220250.28787917 Ha    -5993315.26971578 eV
  | Total energy, T -> 0          :     -220250.28787917 Ha    -5993315.26971578 eV  <-- do not rely on this value for anything but (periodic) metals
  | Electronic free energy        :     -220250.28787917 Ha    -5993315.26971578 eV

  Derived energy quantities:
  | Kinetic energy                :      221733.94032744 Ha     6033687.50695001 eV
  | Electrostatic energy          :     -428842.04180675 Ha   -11669385.68936868 eV
  | Energy correction for multipole
  | error in Hartree potential    :           2.05408685 Ha          55.89454715 eV
  | Sum of eigenvalues per atom                           :       -4666.10401167 eV
  | Total energy (T->0) per atom                          :       -7927.66570068 eV  <-- do not rely on this value for anything but (periodic) metals
  | Electronic free energy per atom                       :       -7927.66570068 eV
  Evaluating new KS density using the density matrix
  Evaluating density matrix
  Evaluating density matrix
  Time summed over all CPUs for getting density from density matrix: real work     1543.918 s, elapsed     2050.079 s
  Integration grid: deviation in total charge (<rho> - N_e) =  -7.190465E-09
  | <rho_up-rho_dn> = N_up-N_dn =      0.0000; <|rho_up-rho_dn|> =      0.0000

  Self-consistency convergence accuracy:
  | Change of charge/spin density :  0.2706E-01  0.8585E-12
  | Change of unmixed KS charge/spin density :  0.2678E-01  0.9201E-12
  | Change of sum of eigenvalues  :  0.1016E+03 eV
  | Change of total energy        :  0.1314E+00 eV


------------------------------------------------------------
  End self-consistency iteration #    12       :  max(cpu_time)    wall_clock(cpu1)
  | Time for this iteration                     :     4957.871 s        4957.997 s
  | Charge density update                       :      186.834 s         186.839 s
  | Density mixing & preconditioning            :      103.753 s         103.755 s
  | Hartree multipole update                    :        0.069 s           0.069 s
  | Hartree multipole summation                 :        5.919 s           5.918 s
  | Integration                                 :       46.849 s          46.850 s
  | Solution of K.-S. eqns.                     :     4614.420 s        4614.541 s
  | Total energy evaluation                     :        0.003 s           0.009 s

  Partial memory accounting:
  | Current value for overall tracked memory usage:
  |   Minimum:      779.498 MB (on task 55)
  |   Maximum:     3691.823 MB (on task  3)
  |   Average:     1007.054 MB
  | Peak value for overall tracked memory usage:
  |   Minimum:     3642.205 MB (on task 43 after allocating kdm)
  |   Maximum:    16512.248 MB (on task  3 after allocating eval_tmp)
  |   Average:     4648.382 MB
  | Largest tracked array allocation so far:
  |   Minimum:     2848.891 MB (KS_eigenvector_complex on task  0)
  |   Maximum:     2912.273 MB (KS_eigenvector_complex on task  1)
  |   Average:     2853.842 MB
  Note:  These values currently only include a subset of arrays which are explicitly tracked.
  The "true" memory usage will be greater.
------------------------------------------------------------

------------------------------------------------------------
          Begin self-consistency iteration #   13

  Date     :  20241215, Time     :  115144.084
------------------------------------------------------------
  Pulay mixing of updated and previous charge densities.
  Available memory per node after mixing [GB]:    932.33
  Renormalizing the density to the exact electron count on the 3D integration grid.
  | Formal number of electrons (from input files) :    8568.0000000000
  | Integrated number of electrons on 3D grid     :    8567.9976170971
  | Charge integration error                      :      -0.0023829029
  | Normalization factor for density and gradient :       1.0000002781

  Evaluating partitioned Hartree potential by multipole expansion.
  | Original multipole sum: apparent total charge =   0.100000E+00
  | Sum of charges compensated after spline to logarithmic grids =   0.248144E-02
  | Analytical far-field extrapolation by fixed multipoles:
  | Hartree multipole sum: apparent total charge =   0.100000E+00
  Summing up the Hartree potential.
  Time summed over all CPUs for potential: real work        3.584 s, elapsed        5.495 s
  | RMS charge density error from multipole expansion :   0.191180E+00
  | Average real-space part of the electrostatic potential :      0.21845678 eV

  Integrating Hamiltonian matrix: batch-based integration.
  Time summed over all CPUs for integration: real work     2077.002 s, elapsed     2969.131 s => Consider using load balancing!

  Updating Kohn-Sham eigenvalues and eigenvectors using ELSI and the (modified) LAPACK eigensolver.

  Obtaining occupation numbers and electronic chemical potential using ELSI.
  | Note that, for insulating systems, the printed 'chemical potential' value is not uniquely defined.
  | It can be anywhere in the energy gap, as long as it correctly separates occupied and unoccupied states.
  | In systems with a gap, the physically relevant chemical potential is the VBM or HOMO.

  | Chemical potential (Fermi level):    -4.99344333 eV
  Current spin moment of the entire structure :
  | N = N_up - N_down (sum over all k points):         0.00000
  | S (sum over all k points)                :         0.00000

  What follows are estimated values for band gap, HOMO, LUMO, etc.
  | They are estimated on a discrete k-point grid and not necessarily exact.
  | For converged numbers, create a DOS and/or band structure plot on a denser k-grid.

  Highest occupied state (VBM) at     -5.03224926 eV (relative to internal zero)
  | Occupation number:      0.99999998
  | K-point:       1 at    0.000000    0.000000    0.000000 (in units of recip. lattice)
  | Spin channel:        2

  Lowest unoccupied state (CBM) at    -4.46910887 eV (relative to internal zero)
  | Occupation number:      0.00000000
  | K-point:       1 at    0.000000    0.000000    0.000000 (in units of recip. lattice)
  | Spin channel:        1

  ESTIMATED overall HOMO-LUMO gap:      0.56314039 eV between HOMO at k-point 1 and LUMO at k-point 1
  | This appears to be a direct band gap.
  The gap value is above 0.2 eV. Unless you are using a very sparse k-point grid,
  this system is most likely an insulator or a semiconductor.

  Total energy components:
  | Sum of eigenvalues            :     -129643.19060158 Ha    -3527770.70726634 eV
  | XC energy correction          :      -13142.14082468 Ha     -357615.84713352 eV
  | XC potential correction       :       16989.90641907 Ha      462318.87618842 eV
  | Free-atom electrostatic energy:      -93652.17941106 Ha    -2548405.46321729 eV
  | Hartree energy correction     :        -802.68891455 Ha      -21842.27668770 eV
  | Entropy correction            :          -0.00000000 Ha          -0.00000000 eV
  | ---------------------------
  | Total energy                  :     -220250.29333279 Ha    -5993315.41811643 eV
  | Total energy, T -> 0          :     -220250.29333279 Ha    -5993315.41811643 eV  <-- do not rely on this value for anything but (periodic) metals
  | Electronic free energy        :     -220250.29333279 Ha    -5993315.41811643 eV

  Derived energy quantities:
  | Kinetic energy                :      221734.25272925 Ha     6033696.00783578 eV
  | Electrostatic energy          :     -428842.40523736 Ha   -11669395.57881869 eV
  | Energy correction for multipole
  | error in Hartree potential    :           2.05046392 Ha          55.79596214 eV
  | Sum of eigenvalues per atom                           :       -4666.36336940 eV
  | Total energy (T->0) per atom                          :       -7927.66589698 eV  <-- do not rely on this value for anything but (periodic) metals
  | Electronic free energy per atom                       :       -7927.66589698 eV
  Evaluating new KS density using the density matrix
  Evaluating density matrix
  Evaluating density matrix
  Time summed over all CPUs for getting density from density matrix: real work     1540.597 s, elapsed     2048.418 s
  Integration grid: deviation in total charge (<rho> - N_e) =  -7.194103E-09
  | <rho_up-rho_dn> = N_up-N_dn =     -0.0000; <|rho_up-rho_dn|> =      0.0000

  Self-consistency convergence accuracy:
  | Change of charge/spin density :  0.2833E-01  0.8101E-12
  | Change of unmixed KS charge/spin density :  0.3062E-01  0.1011E-11
  | Change of sum of eigenvalues  : -0.1961E+03 eV
  | Change of total energy        : -0.1484E+00 eV


------------------------------------------------------------
  End self-consistency iteration #    13       :  max(cpu_time)    wall_clock(cpu1)
  | Time for this iteration                     :     4959.579 s        4959.697 s
  | Charge density update                       :      187.234 s         187.238 s
  | Density mixing & preconditioning            :      103.268 s         103.271 s
  | Hartree multipole update                    :        0.066 s           0.066 s
  | Hartree multipole summation                 :        5.898 s           5.899 s
  | Integration                                 :       47.219 s          47.220 s
  | Solution of K.-S. eqns.                     :     4615.865 s        4615.979 s
  | Total energy evaluation                     :        0.003 s           0.009 s

  Partial memory accounting:
  | Current value for overall tracked memory usage:
  |   Minimum:      779.498 MB (on task 55)
  |   Maximum:     3691.823 MB (on task  3)
  |   Average:     1007.054 MB
  | Peak value for overall tracked memory usage:
  |   Minimum:     3642.205 MB (on task 43 after allocating kdm)
  |   Maximum:    16512.248 MB (on task  3 after allocating eval_tmp)
  |   Average:     4648.382 MB
  | Largest tracked array allocation so far:
  |   Minimum:     2848.891 MB (KS_eigenvector_complex on task  0)
  |   Maximum:     2912.273 MB (KS_eigenvector_complex on task  1)
  |   Average:     2853.842 MB
  Note:  These values currently only include a subset of arrays which are explicitly tracked.
  The "true" memory usage will be greater.
------------------------------------------------------------

------------------------------------------------------------
          Begin self-consistency iteration #   14

  Date     :  20241215, Time     :  131423.781
------------------------------------------------------------
  Pulay mixing of updated and previous charge densities.
  Available memory per node after mixing [GB]:    932.33
  Renormalizing the density to the exact electron count on the 3D integration grid.
  | Formal number of electrons (from input files) :    8568.0000000000
  | Integrated number of electrons on 3D grid     :    8568.0054901228
  | Charge integration error                      :       0.0054901228
  | Normalization factor for density and gradient :       0.9999993592

  Evaluating partitioned Hartree potential by multipole expansion.
  | Original multipole sum: apparent total charge =   0.100000E+00
  | Sum of charges compensated after spline to logarithmic grids =   0.248383E-02
  | Analytical far-field extrapolation by fixed multipoles:
  | Hartree multipole sum: apparent total charge =   0.100000E+00
  Summing up the Hartree potential.
  Time summed over all CPUs for potential: real work        3.646 s, elapsed        5.526 s
  | RMS charge density error from multipole expansion :   0.191094E+00
  | Average real-space part of the electrostatic potential :      0.21838233 eV

  Integrating Hamiltonian matrix: batch-based integration.
  Time summed over all CPUs for integration: real work     2067.668 s, elapsed     2927.822 s => Consider using load balancing!

  Updating Kohn-Sham eigenvalues and eigenvectors using ELSI and the (modified) LAPACK eigensolver.
