------------------------------------------------------------
          Invoking FHI-aims ...

          When using FHI-aims, please cite the following reference:

            Volker Blum, Ralf Gehrke, Felix Hanke, Paula Havu,
            Ville Havu, Xinguo Ren, Karsten Reuter, and Matthias Scheffler,
            'Ab Initio Molecular Simulations with Numeric Atom-Centered Orbitals',
            Computer Physics Communications 180, 2175-2196 (2009)

          In addition, many other developments in FHI-aims are likely important for
          your particular application. If so, please cite them. A partial list of references
          is written at the end of this file. Thank you for giving credit to the authors
          of these developments.

          For general information about FHI-aims please find us at

            https://fhi-aims.org

          Online tutorials can be found at

            https://fhi-aims-club.gitlab.io/tutorials/tutorials-overview/

          For any questions about FHI-aims, please visit our slack channel at

            https://fhi-aims.slack.com

          and our main development and support site at

            https://aims-git.rz-berlin.mpg.de .

          The latter site, in particular, has a wiki to collect information, as well
          as an issue tracker to log discussions, suggest improvements, and report issues
          or bugs. https://aims-git.rz-berlin.mpg.de is also the main development site
          of the project and all new and updated code versions can be obtained there.
          Please send an email to aims-coordinators@fhi-berlin.mpg.de and we will add
          you to these sites. They are for you and everyone is welcome there.

------------------------------------------------------------



  Date     :  20250324, Time     :  155931.950
  Time zero on CPU 1             :   0.546812000000000E+00  s.
  Internal wall clock time zero  :           512063971.950  s.

  FHI-aims created a unique identifier for this run for later identification
  aims_uuid : 547CBFAD-C2CC-4345-A5BF-213C7461F926

  Build configuration of the current instance of FHI-aims
  -------------------------------------------------------
  FHI-aims version      : 240605
  Commit number         : b001b2e18
  CMake host system     : Linux-6.5.0-41-generic
  CMake version         : 3.22.1
  Fortran compiler      : /opt/intel/oneapi/mpi/2021.12/bin/mpiifort (IntelLLVM) version 2024.1.0
  Fortran compiler flags: -fc=ifx -O3 -ip -fp-model precise
  C compiler            : /opt/intel/oneapi/mpi/2021.12/bin/mpiicc (IntelLLVM) version 2024.1.0
  C compiler flags      : -cc=icx -O3 -ip -fp-model precise -std=gnu99
  C++ compiler          : /opt/intel/oneapi/mpi/2021.12/bin/mpiicpc (IntelLLVM) version 2024.1.0
  C++ compiler flags    : -cxx=icpx -O3 -ip -fp-model precise -std=c++11
  HIP compiler          :
  HIP compiler flags    :
  HIP GPU arch          :
  Using MPI
  Using ScaLAPACK
  Using LibXC
  Using i-PI
  Using RLSY
  Linking against: /opt/intel/oneapi/mkl/2024.1/lib/intel64/libmkl_intel_lp64.so
                   /opt/intel/oneapi/mkl/2024.1/lib/intel64/libmkl_sequential.so
                   /opt/intel/oneapi/mkl/2024.1/lib/intel64/libmkl_core.so
                   /opt/intel/oneapi/mkl/2024.1/lib/intel64/libmkl_blacs_intelmpi_lp64.so
                   /opt/intel/oneapi/mkl/2024.1/lib/intel64/libmkl_scalapack_lp64.so
                   /opt/intel/oneapi/mkl/2024.1/lib/intel64/libmkl_core.so

  Using       32 parallel tasks.
  Task        0 on host RSL-arvutus reporting.
  Task        1 on host RSL-arvutus reporting.
  Task        2 on host RSL-arvutus reporting.
  Task        3 on host RSL-arvutus reporting.
  Task        4 on host RSL-arvutus reporting.
  Task        5 on host RSL-arvutus reporting.
  Task        6 on host RSL-arvutus reporting.
  Task        7 on host RSL-arvutus reporting.
  Task        8 on host RSL-arvutus reporting.
  Task        9 on host RSL-arvutus reporting.
  Task       10 on host RSL-arvutus reporting.
  Task       11 on host RSL-arvutus reporting.
  Task       12 on host RSL-arvutus reporting.
  Task       13 on host RSL-arvutus reporting.
  Task       14 on host RSL-arvutus reporting.
  Task       15 on host RSL-arvutus reporting.
  Task       16 on host RSL-arvutus reporting.
  Task       17 on host RSL-arvutus reporting.
  Task       18 on host RSL-arvutus reporting.
  Task       19 on host RSL-arvutus reporting.
  Task       20 on host RSL-arvutus reporting.
  Task       21 on host RSL-arvutus reporting.
  Task       22 on host RSL-arvutus reporting.
  Task       23 on host RSL-arvutus reporting.
  Task       24 on host RSL-arvutus reporting.
  Task       25 on host RSL-arvutus reporting.
  Task       26 on host RSL-arvutus reporting.
  Task       27 on host RSL-arvutus reporting.
  Task       28 on host RSL-arvutus reporting.
  Task       29 on host RSL-arvutus reporting.
  Task       30 on host RSL-arvutus reporting.
  Task       31 on host RSL-arvutus reporting.

  Memory overcommitment is allowed on your operating system.

  Obtaining array dimensions for all initial allocations:
  
  -----------------------------------------------------------------------
  Parsing control.in (first pass over file, find array dimensions only).
  The contents of control.in will be repeated verbatim below
  unless switched off by setting 'verbatim_writeout .false.' .
  in the first line of control.in .
  -----------------------------------------------------------------------
  
    xc              pbe
    relativistic    zora scalar 1.0e-12
    k_grid          4 4 1
  
    spin            collinear
    default_initial_moment        0.0
    charge	  1.0
    output          Mulliken
  
  
  ################################################################################
  #
  #  FHI-aims code project
  #  VB, Fritz-Haber Institut, 2009
  #
  #  Suggested "light" defaults for Ti atom (to be pasted into control.in file)
  #  Be sure to double-check any results obtained with these settings for post-processing,
  #  e.g., with the "tight" defaults and larger basis sets.
  #
  ################################################################################
    species        Ti
  #     global species definitions
      nucleus             22
      mass                47.867
  #
      l_hartree           4
  #
      cut_pot             3.5          1.5  1.0
      basis_dep_cutoff    1e-4
  #
      radial_base         48 5.0
      radial_multiplier   1
      angular_grids       specified
        division   0.5171   50
        division   0.9824  110
        division   1.2917  194
        division   1.4940  302
  #      division   1.6934  434
  #      division   1.8425  590
  #      division   2.1901  770
  #      division   2.2896  974
  #      division   2.8244 1202
  #      outer_grid  974
        outer_grid  302
  ################################################################################
  #
  #  Definition of "minimal" basis
  #
  ################################################################################
  #     valence basis states
      valence      4  s   2.
      valence      3  p   6.
      valence      3  d   2.
  #     ion occupancy
      ion_occ      4  s   1.
      ion_occ      3  p   6.
      ion_occ      3  d   1.
  ################################################################################
  #
  #  Suggested additional basis functions. For production calculations,
  #  uncomment them one after another (the most important basis functions are
  #  listed first).
  #
  #  Constructed for dimers: 1.6 A, 1.85 A, 2.5 A, 3.25 A, 4.25 A
  #
  ################################################################################
  #  "First tier" - improvements: -396.25 meV to -19.41 meV
       hydro 4 f 8
       hydro 3 d 2.7
       ionic 4 p auto
  #     hydro 5 g 11.6
       ionic 4 s auto
  #  "Second tier" - improvements: -16.30 meV to -2.03 meV
  #     hydro 3 d 4.4
  #     hydro 6 h 16
  #     hydro 4 f 9.4
  #     hydro 4 p 4.5
  #     hydro 1 s 0.5
  #  "Third tier" - improvements: -6.28 meV to -0.37 meV
  #     hydro 4 d 6.4
  #     hydro 4 f 10
  #     hydro 5 g 12
  #     hydro 2 p 1.7
  #     hydro 6 h 16.4
  #     hydro 4 s 3.8
  #  Further basis functions: -0.45 meV and smaller improvements
  #     hydro 3 d 8.8
  #     hydro 5 p 18
  #     hydro 4 f 22.4
  #     hydro 5 f 7.2  # -0.16 meV
  #     hydro 3 d 2.1  # -0.11 meV
  #     hydro 5 g 7.4  # -0.09 meV
  
  
  ################################################################################
  #
  #  FHI-aims code project
  #  VB, Fritz-Haber Institut, 2009
  #
  #  Suggested "light" defaults for O atom (to be pasted into control.in file)
  #  Be sure to double-check any results obtained with these settings for post-processing,
  #  e.g., with the "tight" defaults and larger basis sets.
  #
  ################################################################################
    species        O
  #     global species definitions
      nucleus             8
      mass                15.9994
  #
      l_hartree           4
  #
      cut_pot             3.5  1.5  1.0
      basis_dep_cutoff    1e-4
  #
      radial_base         36 5.0
      radial_multiplier   1
       angular_grids specified
        division   0.2659   50
        division   0.4451  110
        division   0.6052  194
        division   0.7543  302
  #      division   0.8014  434
  #      division   0.8507  590
  #      division   0.8762  770
  #      division   0.9023  974
  #      division   1.2339 1202
  #      outer_grid 974
        outer_grid 302
  ################################################################################
  #
  #  Definition of "minimal" basis
  #
  ################################################################################
  #     valence basis states
      valence      2  s   2.
      valence      2  p   4.
  #     ion occupancy
      ion_occ      2  s   1.
      ion_occ      2  p   3.
  ################################################################################
  #
  #  Suggested additional basis functions. For production calculations,
  #  uncomment them one after another (the most important basis functions are
  #  listed first).
  #
  #  Constructed for dimers: 1.0 A, 1.208 A, 1.5 A, 2.0 A, 3.0 A
  #
  ################################################################################
  #  "First tier" - improvements: -699.05 meV to -159.38 meV
       hydro 2 p 1.8
       hydro 3 d 7.6
       hydro 3 s 6.4
  #  "Second tier" - improvements: -49.91 meV to -5.39 meV
  #     hydro 4 f 11.6
  #     hydro 3 p 6.2
  #     hydro 3 d 5.6
  #     hydro 5 g 17.6
  #     hydro 1 s 0.75
  #  "Third tier" - improvements: -2.83 meV to -0.50 meV
  #     ionic 2 p auto
  #     hydro 4 f 10.8
  #     hydro 4 d 4.7
  #     hydro 2 s 6.8
  #  "Fourth tier" - improvements: -0.40 meV to -0.12 meV
  #     hydro 3 p 5
  #     hydro 3 s 3.3
  #     hydro 5 g 15.6
  #     hydro 4 f 17.6
  #     hydro 4 d 14
  # Further basis functions - -0.08 meV and below
  #     hydro 3 s 2.1
  #     hydro 4 d 11.6
  #     hydro 3 p 16
  #     hydro 2 s 17.2
  ################################################################################
  #
  #  FHI-aims code project
  #  VB, Fritz-Haber Institut, 2009
  #
  #  Suggested "light" defaults for F atom (to be pasted into control.in file)
  #  Be sure to double-check any results obtained with these settings for post-processing,
  #  e.g., with the "tight" defaults and larger basis sets.
  #
  ################################################################################
    species        F
  #     global species definitions
      nucleus             9
      mass                18.9984032
  #
      l_hartree           4
  #
      cut_pot             3.5  1.5  1.0
      basis_dep_cutoff    1e-4
  #
      radial_base         37 5.0
      radial_multiplier   1
      angular_grids specified
        division   0.4014  110
        division   0.5291  194
        division   0.6019  302
  #      division   0.6814  434
  #      division   0.7989  590
  #      division   0.8965  770
  #      division   1.3427  974
  #      outer_grid   974
        outer_grid   302
  ################################################################################
  #
  #  Definition of "minimal" basis
  #
  ################################################################################
  #     valence basis states
      valence      2  s   2.
      valence      2  p   5.
  #     ion occupancy
      ion_occ      2  s   1.
      ion_occ      2  p   4.
  ################################################################################
  #
  #  Suggested additional basis functions. For production calculations,
  #  uncomment them one after another (the most important basis functions are
  #  listed first).
  #
  #  Constructed for dimers: 1.2 A, 1.418 A, 1.75 A, 2.25 A, 3.25 A
  #
  ################################################################################
  #  "First tier" - improvements: -149.44 meV to -45.88 meV
       hydro 2 p 1.7
       hydro 3 d 7.4
       hydro 3 s 6.8
  #  "Second tier" - improvements: -12.96 meV to -1.56 meV
  #     hydro 4 f 11.2
  #     ionic 2 p auto
  #     hydro 1 s 0.75
  #     hydro 4 d 8.8
  #     hydro 5 g 16.8
  #  "Third tier" - improvements: -0.58 meV to -0.05 meV
  #     hydro 3 p 6.2
  #     hydro 3 s 3.2
  #     hydro 4 f 9.6
  #     hydro 3 s 19.6
  #     hydro 4 d 8.6
  #     hydro 5 g 14.4
  # Further basis functions: -0.05 meV and below
  #     hydro 3 p 4.2
  
  -----------------------------------------------------------------------
  Completed first pass over input file control.in .
  -----------------------------------------------------------------------
  
  
  -----------------------------------------------------------------------
  Parsing geometry.in (first pass over file, find array dimensions only).
  The contents of geometry.in will be repeated verbatim below
  unless switched off by setting 'verbatim_writeout .false.' .
  in the first line of geometry.in .
  -----------------------------------------------------------------------
  
  lattice_vector 13.132253 0.000000 0.000000
  lattice_vector 0.000000 11.891530 0.000000
  lattice_vector 0.000000 0.000000 45.139409
  
  atom_frac 0.499997 0.000000 0.376754 O
  atom_frac 0.152778 0.125000 0.405039 O
  atom_frac 0.249999 0.000000 0.405039 Ti
  atom_frac 0.499999 0.125000 0.405039 Ti
  atom_frac 0.347220 0.125000 0.405040 O
  atom_frac 0.000000 0.000000 0.433324 O
  atom_frac 0.249996 0.000000 0.449490 O
  atom_frac 0.402776 0.125000 0.477774 O
  atom_frac 0.499997 0.000000 0.477775 Ti
  atom_frac 0.249997 0.125000 0.477775 Ti
  atom_frac 0.097218 0.125000 0.477775 O
  atom_frac 0.249999 0.000000 0.506060 O
  atom_frac 0.499994 0.000000 0.522225 O
  atom_frac 0.152775 0.125000 0.550510 O
  atom_frac 0.249996 0.000000 0.550510 Ti
  atom_frac 0.499996 0.125000 0.550510 Ti
  atom_frac 0.347217 0.125000 0.550511 O
  atom_frac 0.499998 0.000000 0.578795 O
  atom_frac 0.249993 0.000000 0.594961 O
  atom_frac 0.402774 0.125000 0.623245 O
  atom_frac 0.499995 0.000000 0.623246 Ti
  atom_frac 0.249995 0.125000 0.623246 Ti
  atom_frac 0.097216 0.125000 0.623246 O
  atom_frac 0.249996 0.000000 0.651531 O
  atom_frac 0.499997 0.250000 0.376754 O
  atom_frac 0.152778 0.375000 0.405039 O
  atom_frac 0.249999 0.250000 0.405039 Ti
  atom_frac 0.499999 0.375000 0.405039 Ti
  atom_frac 0.347220 0.375000 0.405040 O
  atom_frac 0.000000 0.250000 0.433324 O
  atom_frac 0.249996 0.250000 0.449490 O
  atom_frac 0.402776 0.375000 0.477774 O
  atom_frac 0.499997 0.250000 0.477775 Ti
  atom_frac 0.249997 0.375000 0.477775 Ti
  atom_frac 0.097218 0.375000 0.477775 O
  atom_frac 0.249999 0.250000 0.506060 O
  atom_frac 0.499994 0.250000 0.522225 O
  atom_frac 0.152775 0.375000 0.550510 O
  atom_frac 0.249996 0.250000 0.550510 Ti
  atom_frac 0.499996 0.375000 0.550510 Ti
  atom_frac 0.347217 0.375000 0.550511 O
  atom_frac 0.499998 0.250000 0.578795 O
  atom_frac 0.249993 0.250000 0.594961 O
  atom_frac 0.402774 0.375000 0.623245 O
  atom_frac 0.499995 0.250000 0.623246 Ti
  atom_frac 0.249995 0.375000 0.623246 Ti
  atom_frac 0.097216 0.375000 0.623246 F
  atom_frac 0.249996 0.250000 0.651531 O
  atom_frac 0.999997 0.000000 0.376754 O
  atom_frac 0.652778 0.125000 0.405039 O
  atom_frac 0.749999 0.000000 0.405039 Ti
  atom_frac 0.999999 0.125000 0.405039 Ti
  atom_frac 0.847220 0.125000 0.405040 O
  atom_frac 0.500000 0.000000 0.433324 O
  atom_frac 0.749996 0.000000 0.449490 O
  atom_frac 0.902776 0.125000 0.477774 O
  atom_frac 0.999997 0.000000 0.477775 Ti
  atom_frac 0.749997 0.125000 0.477775 Ti
  atom_frac 0.597218 0.125000 0.477775 O
  atom_frac 0.749999 0.000000 0.506060 O
  atom_frac 0.999994 0.000000 0.522225 O
  atom_frac 0.652775 0.125000 0.550510 O
  atom_frac 0.749996 0.000000 0.550510 Ti
  atom_frac 0.999996 0.125000 0.550510 Ti
  atom_frac 0.847217 0.125000 0.550511 O
  atom_frac 0.999998 0.000000 0.578795 O
  atom_frac 0.749993 0.000000 0.594961 O
  atom_frac 0.902774 0.125000 0.623245 O
  atom_frac 0.999995 0.000000 0.623246 Ti
  atom_frac 0.749995 0.125000 0.623246 Ti
  atom_frac 0.597216 0.125000 0.623246 O
  atom_frac 0.749996 0.000000 0.651531 O
  atom_frac 0.999997 0.250000 0.376754 O
  atom_frac 0.652778 0.375000 0.405039 O
  atom_frac 0.749999 0.250000 0.405039 Ti
  atom_frac 0.999999 0.375000 0.405039 Ti
  atom_frac 0.847220 0.375000 0.405040 O
  atom_frac 0.500000 0.250000 0.433324 O
  atom_frac 0.749996 0.250000 0.449490 O
  atom_frac 0.902776 0.375000 0.477774 O
  atom_frac 0.999997 0.250000 0.477775 Ti
  atom_frac 0.749997 0.375000 0.477775 Ti
  atom_frac 0.597218 0.375000 0.477775 O
  atom_frac 0.749999 0.250000 0.506060 O
  atom_frac 0.999994 0.250000 0.522225 O
  atom_frac 0.652775 0.375000 0.550510 O
  atom_frac 0.749996 0.250000 0.550510 Ti
  atom_frac 0.999996 0.375000 0.550510 Ti
  atom_frac 0.847217 0.375000 0.550511 O
  atom_frac 0.999998 0.250000 0.578795 O
  atom_frac 0.749993 0.250000 0.594961 O
  atom_frac 0.902774 0.375000 0.623245 O
  atom_frac 0.999995 0.250000 0.623246 Ti
  atom_frac 0.749995 0.375000 0.623246 Ti
  atom_frac 0.597216 0.375000 0.623246 O
  atom_frac 0.749996 0.250000 0.651531 O
  atom_frac 0.499997 0.500000 0.376754 O
  atom_frac 0.152778 0.625000 0.405039 O
  atom_frac 0.249999 0.500000 0.405039 Ti
  atom_frac 0.499999 0.625000 0.405039 Ti
  atom_frac 0.347220 0.625000 0.405040 O
  atom_frac 0.000000 0.500000 0.433324 O
  atom_frac 0.249996 0.500000 0.449490 O
  atom_frac 0.402776 0.625000 0.477774 O
  atom_frac 0.499997 0.500000 0.477775 Ti
  atom_frac 0.249997 0.625000 0.477775 Ti
  atom_frac 0.097218 0.625000 0.477775 O
  atom_frac 0.249999 0.500000 0.506060 O
  atom_frac 0.499994 0.500000 0.522225 O
  atom_frac 0.152775 0.625000 0.550510 O
  atom_frac 0.249996 0.500000 0.550510 Ti
  atom_frac 0.499996 0.625000 0.550510 Ti
  atom_frac 0.347217 0.625000 0.550511 O
  atom_frac 0.499998 0.500000 0.578795 O
  atom_frac 0.249993 0.500000 0.594961 O
  atom_frac 0.402774 0.625000 0.623245 O
  atom_frac 0.499995 0.500000 0.623246 Ti
  atom_frac 0.249995 0.625000 0.623246 Ti
  atom_frac 0.097216 0.625000 0.623246 O
  atom_frac 0.249996 0.500000 0.651531 O
  atom_frac 0.499997 0.750000 0.376754 O
  atom_frac 0.152778 0.875000 0.405039 O
  atom_frac 0.249999 0.750000 0.405039 Ti
  atom_frac 0.499999 0.875000 0.405039 Ti
  atom_frac 0.347220 0.875000 0.405040 O
  atom_frac 0.000000 0.750000 0.433324 O
  atom_frac 0.249996 0.750000 0.449490 O
  atom_frac 0.402776 0.875000 0.477774 O
  atom_frac 0.499997 0.750000 0.477775 Ti
  atom_frac 0.249997 0.875000 0.477775 Ti
  atom_frac 0.097218 0.875000 0.477775 O
  atom_frac 0.249999 0.750000 0.506060 O
  atom_frac 0.499994 0.750000 0.522225 O
  atom_frac 0.152775 0.875000 0.550510 O
  atom_frac 0.249996 0.750000 0.550510 Ti
  atom_frac 0.499996 0.875000 0.550510 Ti
  atom_frac 0.347217 0.875000 0.550511 O
  atom_frac 0.499998 0.750000 0.578795 O
  atom_frac 0.249993 0.750000 0.594961 O
  atom_frac 0.402774 0.875000 0.623245 O
  atom_frac 0.499995 0.750000 0.623246 Ti
  atom_frac 0.249995 0.875000 0.623246 Ti
  atom_frac 0.097216 0.875000 0.623246 O
  atom_frac 0.249996 0.750000 0.651531 O
  atom_frac 0.999997 0.500000 0.376754 O
  atom_frac 0.652778 0.625000 0.405039 O
  atom_frac 0.749999 0.500000 0.405039 Ti
  atom_frac 0.999999 0.625000 0.405039 Ti
  atom_frac 0.847220 0.625000 0.405040 O
  atom_frac 0.500000 0.500000 0.433324 O
  atom_frac 0.749996 0.500000 0.449490 O
  atom_frac 0.902776 0.625000 0.477774 O
  atom_frac 0.999997 0.500000 0.477775 Ti
  atom_frac 0.749997 0.625000 0.477775 Ti
  atom_frac 0.597218 0.625000 0.477775 O
  atom_frac 0.749999 0.500000 0.506060 O
  atom_frac 0.999994 0.500000 0.522225 O
  atom_frac 0.652775 0.625000 0.550510 O
  atom_frac 0.749996 0.500000 0.550510 Ti
  atom_frac 0.999996 0.625000 0.550510 Ti
  atom_frac 0.847217 0.625000 0.550511 O
  atom_frac 0.999998 0.500000 0.578795 O
  atom_frac 0.749993 0.500000 0.594961 O
  atom_frac 0.902774 0.625000 0.623245 O
  atom_frac 0.999995 0.500000 0.623246 Ti
  atom_frac 0.749995 0.625000 0.623246 Ti
  atom_frac 0.597216 0.625000 0.623246 O
  atom_frac 0.749996 0.500000 0.651531 O
  atom_frac 0.999997 0.750000 0.376754 O
  atom_frac 0.652778 0.875000 0.405039 O
  atom_frac 0.749999 0.750000 0.405039 Ti
  atom_frac 0.999999 0.875000 0.405039 Ti
  atom_frac 0.847220 0.875000 0.405040 O
  atom_frac 0.500000 0.750000 0.433324 O
  atom_frac 0.749996 0.750000 0.449490 O
  atom_frac 0.902776 0.875000 0.477774 O
  atom_frac 0.999997 0.750000 0.477775 Ti
  atom_frac 0.749997 0.875000 0.477775 Ti
  atom_frac 0.597218 0.875000 0.477775 O
  atom_frac 0.749999 0.750000 0.506060 O
  atom_frac 0.999994 0.750000 0.522225 O
  atom_frac 0.652775 0.875000 0.550510 O
  atom_frac 0.749996 0.750000 0.550510 Ti
  atom_frac 0.999996 0.875000 0.550510 Ti
  atom_frac 0.847217 0.875000 0.550511 O
  atom_frac 0.999998 0.750000 0.578795 O
  atom_frac 0.749993 0.750000 0.594961 O
  atom_frac 0.902774 0.875000 0.623245 O
  atom_frac 0.999995 0.750000 0.623246 Ti
  atom_frac 0.749995 0.875000 0.623246 Ti
  atom_frac 0.597216 0.875000 0.623246 O
  atom_frac 0.749996 0.750000 0.651531 O
  
  -----------------------------------------------------------------------
  Completed first pass over input file geometry.in .
  -----------------------------------------------------------------------
  

  Basic array size parameters:
  | Number of species                 :        3
  | Number of atoms                   :      192
  | Number of lattice vectors         :        3
  | Max. basis fn. angular momentum   :        3
  | Max. atomic/ionic basis occupied n:        4
  | Max. number of basis fn. types    :        3
  | Max. radial fns per species/type  :        7
  | Max. logarithmic grid size        :     1383
  | Max. radial integration grid size :       48
  | Max. angular integration grid size:      302
  | Max. angular grid division number :        8
  | Radial grid for Hartree potential :     1383
  | Number of spin channels           :        2

------------------------------------------------------------
          Reading file control.in.
------------------------------------------------------------
  XC: Using PBE gradient-corrected functionals.
  Scalar relativistic treatment of kinetic energy: ZORA.
  Threshold value for ZORA:   0.100000E-11
  Found k-point grid:         4         4         1
  Spin treatment: Spin density functional theory - collinear spins.
  Initial spin moment per atom:   0.0000
  Charged system requested: Charge =   0.100000E+01.
  Mulliken charge analysis will be performed and summarised to the main output.
  Full Mulliken charge analysis will be written to file 'Mulliken.out'.
 
  Reading configuration options for species Ti                  .
  | Found nuclear charge :  22.0000
  | Found atomic mass :    47.8670000000000      amu
  | Found l_max for Hartree potential  :   4
  | Found cutoff potl. onset [A], width [A], scale factor :    3.50000    1.50000    1.00000
  | Threshold for basis-dependent cutoff potential is   0.100000E-03
  | Found data for basic radial integration grid :    48 points, outermost radius =    5.000 A
  | Found multiplier for basic radial grid :   1
  | Found angular grid specification: user-specified.
  | Specified grid contains     5 separate shells.
  | Check grid settings after all constraints further below.
  | Found free-atom valence shell :  4 s   2.000
  | Found free-atom valence shell :  3 p   6.000
  | Found free-atom valence shell :  3 d   2.000
  | Found free-ion valence shell :  4 s   1.000
  | Found free-ion valence shell :  3 p   6.000
  | Found free-ion valence shell :  3 d   1.000
  | Found hydrogenic basis function :  4 f   8.000
  | Found hydrogenic basis function :  3 d   2.700
  | Found ionic basis function :  4 p , default cutoff radius.
  | Found ionic basis function :  4 s , default cutoff radius.
 | Encountered keyword species, ending the description of species Ti                  .
  Species Ti                  : Missing cutoff potential type.
  Defaulting to exp(1/x)/(1-x)^2 type cutoff potential.
  Species Ti: No 'logarithmic' tag. Using default grid for free atom:
  | Default logarithmic grid data [bohr] : 0.1000E-03 0.1000E+03 0.1012E+01
  | Will include ionic basis functions of  2.0-fold positive Ti                   ion.
  Species Ti: On-site basis accuracy parameter (for Gram-Schmidt orthonormalisation) not specified.
  Using default value basis_acc =  0.1000000E-03.
  Species Ti                  : Using default innermost maximum threshold i_radial=  2 for radial functions.
  Species Ti                  : Default cutoff onset for free atom density etc. : 0.35000000E+01 AA.
  Species Ti                  : Basic radial grid will be enhanced according to radial_multiplier =   1, to contain    48 grid points.
 
  Reading configuration options for species O                   .
  | Found nuclear charge :   8.0000
  | Found atomic mass :    15.9994000000000      amu
  | Found l_max for Hartree potential  :   4
  | Found cutoff potl. onset [A], width [A], scale factor :    3.50000    1.50000    1.00000
  | Threshold for basis-dependent cutoff potential is   0.100000E-03
  | Found data for basic radial integration grid :    36 points, outermost radius =    5.000 A
  | Found multiplier for basic radial grid :   1
  | Found angular grid specification: user-specified.
  | Specified grid contains     5 separate shells.
  | Check grid settings after all constraints further below.
  | Found free-atom valence shell :  2 s   2.000
  | Found free-atom valence shell :  2 p   4.000
  | Found free-ion valence shell :  2 s   1.000
  | Found free-ion valence shell :  2 p   3.000
  | Found hydrogenic basis function :  2 p   1.800
  | Found hydrogenic basis function :  3 d   7.600
  | Found hydrogenic basis function :  3 s   6.400
 | Encountered keyword species, ending the description of species O                   .
  Species O                   : Missing cutoff potential type.
  Defaulting to exp(1/x)/(1-x)^2 type cutoff potential.
  Species O : No 'logarithmic' tag. Using default grid for free atom:
  | Default logarithmic grid data [bohr] : 0.1000E-03 0.1000E+03 0.1012E+01
  Species O : On-site basis accuracy parameter (for Gram-Schmidt orthonormalisation) not specified.
  Using default value basis_acc =  0.1000000E-03.
  Species O                   : Using default innermost maximum threshold i_radial=  2 for radial functions.
  Species O                   : Default cutoff onset for free atom density etc. : 0.35000000E+01 AA.
  Species O                   : Basic radial grid will be enhanced according to radial_multiplier =   1, to contain    36 grid points.
 
  Reading configuration options for species F                   .
  | Found nuclear charge :   9.0000
  | Found atomic mass :    18.9984032000000      amu
  | Found l_max for Hartree potential  :   4
  | Found cutoff potl. onset [A], width [A], scale factor :    3.50000    1.50000    1.00000
  | Threshold for basis-dependent cutoff potential is   0.100000E-03
  | Found data for basic radial integration grid :    37 points, outermost radius =    5.000 A
  | Found multiplier for basic radial grid :   1
  | Found angular grid specification: user-specified.
  | Specified grid contains     4 separate shells.
  | Check grid settings after all constraints further below.
  | Found free-atom valence shell :  2 s   2.000
  | Found free-atom valence shell :  2 p   5.000
  | Found free-ion valence shell :  2 s   1.000
  | Found free-ion valence shell :  2 p   4.000
  | Found hydrogenic basis function :  2 p   1.700
  | Found hydrogenic basis function :  3 d   7.400
  | Found hydrogenic basis function :  3 s   6.800
  Species F                   : Missing cutoff potential type.
  Defaulting to exp(1/x)/(1-x)^2 type cutoff potential.
  Species F : No 'logarithmic' tag. Using default grid for free atom:
  | Default logarithmic grid data [bohr] : 0.1000E-03 0.1000E+03 0.1012E+01
  Species F : On-site basis accuracy parameter (for Gram-Schmidt orthonormalisation) not specified.
  Using default value basis_acc =  0.1000000E-03.
  Species F                   : Using default innermost maximum threshold i_radial=  2 for radial functions.
  Species F                   : Default cutoff onset for free atom density etc. : 0.35000000E+01 AA.
  Species F                   : Basic radial grid will be enhanced according to radial_multiplier =   1, to contain    37 grid points.
 
  Finished reading input file 'control.in'.
 
------------------------------------------------------------


------------------------------------------------------------
          Reading geometry description geometry.in.
------------------------------------------------------------
  | The smallest distance between any two atoms is         1.95947673 AA.
  | The first atom of this pair is atom number                    131 .
  | The second atom of this pair is atom number                   177 .
  | Wigner-Seitz cell of the first atom image           0     0     0 .
  | (The Wigner-Seitz cell of the second atom is 0 0 0  by definition.)

  Symmetry information by spglib:
  | Precision set to  0.1E-04
  | Number of Operations  : 2
  | Space group           : 6
  | International         : Pm      /op
  | Schoenflies           : Cs^1
  Input structure read successfully.
  The structure contains      192 atoms,  and a total of       2432.000 electrons.

  Input geometry:
  | Unit cell:
  |       13.13225300        0.00000000        0.00000000
  |        0.00000000       11.89153000        0.00000000
  |        0.00000000        0.00000000       45.13940900
  | Atomic structure:
  |       Atom                x [A]            y [A]            z [A]
  |    1: Species O             6.56608710        0.00000000       17.00645290
  |    2: Species O             2.00631935        1.48644125       18.28322108
  |    3: Species Ti            3.28305012        0.00000000       18.28322108
  |    4: Species Ti            6.56611337        1.48644125       18.28322108
  |    5: Species O             4.55978089        1.48644125       18.28326622
  |    6: Species O             0.00000000        0.00000000       19.55998927
  |    7: Species O             3.28301072        0.00000000       20.28971295
  |    8: Species O             5.28935633        1.48644125       21.56643600
  |    9: Species Ti            6.56608710        0.00000000       21.56648113
  |   10: Species Ti            3.28302385        1.48644125       21.56648113
  |   11: Species O             1.27669137        1.48644125       21.56648113
  |   12: Species O             3.28305012        0.00000000       22.84324932
  |   13: Species O             6.56604771        0.00000000       23.57292787
  |   14: Species O             2.00627995        1.48644125       24.84969605
  |   15: Species Ti            3.28301072        0.00000000       24.84969605
  |   16: Species Ti            6.56607397        1.48644125       24.84969605
  |   17: Species O             4.55974149        1.48644125       24.84974119
  |   18: Species O             6.56610024        0.00000000       26.12646423
  |   19: Species O             3.28297132        0.00000000       26.85618792
  |   20: Species O             5.28933007        1.48644125       28.13291096
  |   21: Species Ti            6.56606084        0.00000000       28.13295610
  |   22: Species Ti            3.28299759        1.48644125       28.13295610
  |   23: Species O             1.27666511        1.48644125       28.13295610
  |   24: Species O             3.28301072        0.00000000       29.40972429
  |   25: Species O             6.56608710        2.97288250       17.00645290
  |   26: Species O             2.00631935        4.45932375       18.28322108
  |   27: Species Ti            3.28305012        2.97288250       18.28322108
  |   28: Species Ti            6.56611337        4.45932375       18.28322108
  |   29: Species O             4.55978089        4.45932375       18.28326622
  |   30: Species O             0.00000000        2.97288250       19.55998927
  |   31: Species O             3.28301072        2.97288250       20.28971295
  |   32: Species O             5.28935633        4.45932375       21.56643600
  |   33: Species Ti            6.56608710        2.97288250       21.56648113
  |   34: Species Ti            3.28302385        4.45932375       21.56648113
  |   35: Species O             1.27669137        4.45932375       21.56648113
  |   36: Species O             3.28305012        2.97288250       22.84324932
  |   37: Species O             6.56604771        2.97288250       23.57292787
  |   38: Species O             2.00627995        4.45932375       24.84969605
  |   39: Species Ti            3.28301072        2.97288250       24.84969605
  |   40: Species Ti            6.56607397        4.45932375       24.84969605
  |   41: Species O             4.55974149        4.45932375       24.84974119
  |   42: Species O             6.56610024        2.97288250       26.12646423
  |   43: Species O             3.28297132        2.97288250       26.85618792
  |   44: Species O             5.28933007        4.45932375       28.13291096
  |   45: Species Ti            6.56606084        2.97288250       28.13295610
  |   46: Species Ti            3.28299759        4.45932375       28.13295610
  |   47: Species F             1.27666511        4.45932375       28.13295610
  |   48: Species O             3.28301072        2.97288250       29.40972429
  |   49: Species O            13.13221360        0.00000000       17.00645290
  |   50: Species O             8.57244585        1.48644125       18.28322108
  |   51: Species Ti            9.84917662        0.00000000       18.28322108
  |   52: Species Ti           13.13223987        1.48644125       18.28322108
  |   53: Species O            11.12590739        1.48644125       18.28326622
  |   54: Species O             6.56612650        0.00000000       19.55998927
  |   55: Species O             9.84913722        0.00000000       20.28971295
  |   56: Species O            11.85548283        1.48644125       21.56643600
  |   57: Species Ti           13.13221360        0.00000000       21.56648113
  |   58: Species Ti            9.84915035        1.48644125       21.56648113
  |   59: Species O             7.84281787        1.48644125       21.56648113
  |   60: Species O             9.84917662        0.00000000       22.84324932
  |   61: Species O            13.13217421        0.00000000       23.57292787
  |   62: Species O             8.57240645        1.48644125       24.84969605
  |   63: Species Ti            9.84913722        0.00000000       24.84969605
  |   64: Species Ti           13.13220047        1.48644125       24.84969605
  |   65: Species O            11.12586799        1.48644125       24.84974119
  |   66: Species O            13.13222674        0.00000000       26.12646423
  |   67: Species O             9.84909782        0.00000000       26.85618792
  |   68: Species O            11.85545657        1.48644125       28.13291096
  |   69: Species Ti           13.13218734        0.00000000       28.13295610
  |   70: Species Ti            9.84912409        1.48644125       28.13295610
  |   71: Species O             7.84279161        1.48644125       28.13295610
  |   72: Species O             9.84913722        0.00000000       29.40972429
  |   73: Species O            13.13221360        2.97288250       17.00645290
  |   74: Species O             8.57244585        4.45932375       18.28322108
  |   75: Species Ti            9.84917662        2.97288250       18.28322108
  |   76: Species Ti           13.13223987        4.45932375       18.28322108
  |   77: Species O            11.12590739        4.45932375       18.28326622
  |   78: Species O             6.56612650        2.97288250       19.55998927
  |   79: Species O             9.84913722        2.97288250       20.28971295
  |   80: Species O            11.85548283        4.45932375       21.56643600
  |   81: Species Ti           13.13221360        2.97288250       21.56648113
  |   82: Species Ti            9.84915035        4.45932375       21.56648113
  |   83: Species O             7.84281787        4.45932375       21.56648113
  |   84: Species O             9.84917662        2.97288250       22.84324932
  |   85: Species O            13.13217421        2.97288250       23.57292787
  |   86: Species O             8.57240645        4.45932375       24.84969605
  |   87: Species Ti            9.84913722        2.97288250       24.84969605
  |   88: Species Ti           13.13220047        4.45932375       24.84969605
  |   89: Species O            11.12586799        4.45932375       24.84974119
  |   90: Species O            13.13222674        2.97288250       26.12646423
  |   91: Species O             9.84909782        2.97288250       26.85618792
  |   92: Species O            11.85545657        4.45932375       28.13291096
  |   93: Species Ti           13.13218734        2.97288250       28.13295610
  |   94: Species Ti            9.84912409        4.45932375       28.13295610
  |   95: Species O             7.84279161        4.45932375       28.13295610
  |   96: Species O             9.84913722        2.97288250       29.40972429
  |   97: Species O             6.56608710        5.94576500       17.00645290
  |   98: Species O             2.00631935        7.43220625       18.28322108
  |   99: Species Ti            3.28305012        5.94576500       18.28322108
  |  100: Species Ti            6.56611337        7.43220625       18.28322108
  |  101: Species O             4.55978089        7.43220625       18.28326622
  |  102: Species O             0.00000000        5.94576500       19.55998927
  |  103: Species O             3.28301072        5.94576500       20.28971295
  |  104: Species O             5.28935633        7.43220625       21.56643600
  |  105: Species Ti            6.56608710        5.94576500       21.56648113
  |  106: Species Ti            3.28302385        7.43220625       21.56648113
  |  107: Species O             1.27669137        7.43220625       21.56648113
  |  108: Species O             3.28305012        5.94576500       22.84324932
  |  109: Species O             6.56604771        5.94576500       23.57292787
  |  110: Species O             2.00627995        7.43220625       24.84969605
  |  111: Species Ti            3.28301072        5.94576500       24.84969605
  |  112: Species Ti            6.56607397        7.43220625       24.84969605
  |  113: Species O             4.55974149        7.43220625       24.84974119
  |  114: Species O             6.56610024        5.94576500       26.12646423
  |  115: Species O             3.28297132        5.94576500       26.85618792
  |  116: Species O             5.28933007        7.43220625       28.13291096
  |  117: Species Ti            6.56606084        5.94576500       28.13295610
  |  118: Species Ti            3.28299759        7.43220625       28.13295610
  |  119: Species O             1.27666511        7.43220625       28.13295610
  |  120: Species O             3.28301072        5.94576500       29.40972429
  |  121: Species O             6.56608710        8.91864750       17.00645290
  |  122: Species O             2.00631935       10.40508875       18.28322108
  |  123: Species Ti            3.28305012        8.91864750       18.28322108
  |  124: Species Ti            6.56611337       10.40508875       18.28322108
  |  125: Species O             4.55978089       10.40508875       18.28326622
  |  126: Species O             0.00000000        8.91864750       19.55998927
  |  127: Species O             3.28301072        8.91864750       20.28971295
  |  128: Species O             5.28935633       10.40508875       21.56643600
  |  129: Species Ti            6.56608710        8.91864750       21.56648113
  |  130: Species Ti            3.28302385       10.40508875       21.56648113
  |  131: Species O             1.27669137       10.40508875       21.56648113
  |  132: Species O             3.28305012        8.91864750       22.84324932
  |  133: Species O             6.56604771        8.91864750       23.57292787
  |  134: Species O             2.00627995       10.40508875       24.84969605
  |  135: Species Ti            3.28301072        8.91864750       24.84969605
  |  136: Species Ti            6.56607397       10.40508875       24.84969605
  |  137: Species O             4.55974149       10.40508875       24.84974119
  |  138: Species O             6.56610024        8.91864750       26.12646423
  |  139: Species O             3.28297132        8.91864750       26.85618792
  |  140: Species O             5.28933007       10.40508875       28.13291096
  |  141: Species Ti            6.56606084        8.91864750       28.13295610
  |  142: Species Ti            3.28299759       10.40508875       28.13295610
  |  143: Species O             1.27666511       10.40508875       28.13295610
  |  144: Species O             3.28301072        8.91864750       29.40972429
  |  145: Species O            13.13221360        5.94576500       17.00645290
  |  146: Species O             8.57244585        7.43220625       18.28322108
  |  147: Species Ti            9.84917662        5.94576500       18.28322108
  |  148: Species Ti           13.13223987        7.43220625       18.28322108
  |  149: Species O            11.12590739        7.43220625       18.28326622
  |  150: Species O             6.56612650        5.94576500       19.55998927
  |  151: Species O             9.84913722        5.94576500       20.28971295
  |  152: Species O            11.85548283        7.43220625       21.56643600
  |  153: Species Ti           13.13221360        5.94576500       21.56648113
  |  154: Species Ti            9.84915035        7.43220625       21.56648113
  |  155: Species O             7.84281787        7.43220625       21.56648113
  |  156: Species O             9.84917662        5.94576500       22.84324932
  |  157: Species O            13.13217421        5.94576500       23.57292787
  |  158: Species O             8.57240645        7.43220625       24.84969605
  |  159: Species Ti            9.84913722        5.94576500       24.84969605
  |  160: Species Ti           13.13220047        7.43220625       24.84969605
  |  161: Species O            11.12586799        7.43220625       24.84974119
  |  162: Species O            13.13222674        5.94576500       26.12646423
  |  163: Species O             9.84909782        5.94576500       26.85618792
  |  164: Species O            11.85545657        7.43220625       28.13291096
  |  165: Species Ti           13.13218734        5.94576500       28.13295610
  |  166: Species Ti            9.84912409        7.43220625       28.13295610
  |  167: Species O             7.84279161        7.43220625       28.13295610
  |  168: Species O             9.84913722        5.94576500       29.40972429
  |  169: Species O            13.13221360        8.91864750       17.00645290
  |  170: Species O             8.57244585       10.40508875       18.28322108
  |  171: Species Ti            9.84917662        8.91864750       18.28322108
  |  172: Species Ti           13.13223987       10.40508875       18.28322108
  |  173: Species O            11.12590739       10.40508875       18.28326622
  |  174: Species O             6.56612650        8.91864750       19.55998927
  |  175: Species O             9.84913722        8.91864750       20.28971295
  |  176: Species O            11.85548283       10.40508875       21.56643600
  |  177: Species Ti           13.13221360        8.91864750       21.56648113
  |  178: Species Ti            9.84915035       10.40508875       21.56648113
  |  179: Species O             7.84281787       10.40508875       21.56648113
  |  180: Species O             9.84917662        8.91864750       22.84324932
  |  181: Species O            13.13217421        8.91864750       23.57292787
  |  182: Species O             8.57240645       10.40508875       24.84969605
  |  183: Species Ti            9.84913722        8.91864750       24.84969605
  |  184: Species Ti           13.13220047       10.40508875       24.84969605
  |  185: Species O            11.12586799       10.40508875       24.84974119
  |  186: Species O            13.13222674        8.91864750       26.12646423
  |  187: Species O             9.84909782        8.91864750       26.85618792
  |  188: Species O            11.85545657       10.40508875       28.13291096
  |  189: Species Ti           13.13218734        8.91864750       28.13295610
  |  190: Species Ti            9.84912409       10.40508875       28.13295610
  |  191: Species O             7.84279161       10.40508875       28.13295610
  |  192: Species O             9.84913722        8.91864750       29.40972429

  Lattice parameters for 3D lattice (in Angstroms) :    13.132253   11.891530   45.139409
  Angle(s) between unit vectors (in degrees)       :    90.000000   90.000000   90.000000


  Quantities derived from the lattice vectors (in Angstrom^-1):
  | Reciprocal lattice vector 1:  0.478454  0.000000  0.000000
  | Reciprocal lattice vector 2:  0.000000  0.528375  0.000000
  | Reciprocal lattice vector 3:  0.000000  0.000000  0.139195
  | Unit cell volume                               :   0.704909E+04  Angstrom^3

  Fractional coordinates:
                         L1                L2                L3
       atom_frac         0.49999700        0.00000000        0.37675400  O
       atom_frac         0.15277800        0.12500000        0.40503900  O
       atom_frac         0.24999900        0.00000000        0.40503900  Ti
       atom_frac         0.49999900        0.12500000        0.40503900  Ti
       atom_frac         0.34722000        0.12500000        0.40504000  O
       atom_frac         0.00000000        0.00000000        0.43332400  O
       atom_frac         0.24999600        0.00000000        0.44949000  O
       atom_frac         0.40277600        0.12500000        0.47777400  O
       atom_frac         0.49999700        0.00000000        0.47777500  Ti
       atom_frac         0.24999700        0.12500000        0.47777500  Ti
       atom_frac         0.09721800        0.12500000        0.47777500  O
       atom_frac         0.24999900        0.00000000        0.50606000  O
       atom_frac         0.49999400        0.00000000        0.52222500  O
       atom_frac         0.15277500        0.12500000        0.55051000  O
       atom_frac         0.24999600        0.00000000        0.55051000  Ti
       atom_frac         0.49999600        0.12500000        0.55051000  Ti
       atom_frac         0.34721700        0.12500000        0.55051100  O
       atom_frac         0.49999800        0.00000000        0.57879500  O
       atom_frac         0.24999300        0.00000000        0.59496100  O
       atom_frac         0.40277400        0.12500000        0.62324500  O
       atom_frac         0.49999500        0.00000000        0.62324600  Ti
       atom_frac         0.24999500        0.12500000        0.62324600  Ti
       atom_frac         0.09721600        0.12500000        0.62324600  O
       atom_frac         0.24999600        0.00000000        0.65153100  O
       atom_frac         0.49999700        0.25000000        0.37675400  O
       atom_frac         0.15277800        0.37500000        0.40503900  O
       atom_frac         0.24999900        0.25000000        0.40503900  Ti
       atom_frac         0.49999900        0.37500000        0.40503900  Ti
       atom_frac         0.34722000        0.37500000        0.40504000  O
       atom_frac         0.00000000        0.25000000        0.43332400  O
       atom_frac         0.24999600        0.25000000        0.44949000  O
       atom_frac         0.40277600        0.37500000        0.47777400  O
       atom_frac         0.49999700        0.25000000        0.47777500  Ti
       atom_frac         0.24999700        0.37500000        0.47777500  Ti
       atom_frac         0.09721800        0.37500000        0.47777500  O
       atom_frac         0.24999900        0.25000000        0.50606000  O
       atom_frac         0.49999400        0.25000000        0.52222500  O
       atom_frac         0.15277500        0.37500000        0.55051000  O
       atom_frac         0.24999600        0.25000000        0.55051000  Ti
       atom_frac         0.49999600        0.37500000        0.55051000  Ti
       atom_frac         0.34721700        0.37500000        0.55051100  O
       atom_frac         0.49999800        0.25000000        0.57879500  O
       atom_frac         0.24999300        0.25000000        0.59496100  O
       atom_frac         0.40277400        0.37500000        0.62324500  O
       atom_frac         0.49999500        0.25000000        0.62324600  Ti
       atom_frac         0.24999500        0.37500000        0.62324600  Ti
       atom_frac         0.09721600        0.37500000        0.62324600  F
       atom_frac         0.24999600        0.25000000        0.65153100  O
       atom_frac         0.99999700        0.00000000        0.37675400  O
       atom_frac         0.65277800        0.12500000        0.40503900  O
       atom_frac         0.74999900        0.00000000        0.40503900  Ti
       atom_frac         0.99999900        0.12500000        0.40503900  Ti
       atom_frac         0.84722000        0.12500000        0.40504000  O
       atom_frac         0.50000000        0.00000000        0.43332400  O
       atom_frac         0.74999600        0.00000000        0.44949000  O
       atom_frac         0.90277600        0.12500000        0.47777400  O
       atom_frac         0.99999700        0.00000000        0.47777500  Ti
       atom_frac         0.74999700        0.12500000        0.47777500  Ti
       atom_frac         0.59721800        0.12500000        0.47777500  O
       atom_frac         0.74999900        0.00000000        0.50606000  O
       atom_frac         0.99999400        0.00000000        0.52222500  O
       atom_frac         0.65277500        0.12500000        0.55051000  O
       atom_frac         0.74999600        0.00000000        0.55051000  Ti
       atom_frac         0.99999600        0.12500000        0.55051000  Ti
       atom_frac         0.84721700        0.12500000        0.55051100  O
       atom_frac         0.99999800        0.00000000        0.57879500  O
       atom_frac         0.74999300        0.00000000        0.59496100  O
       atom_frac         0.90277400        0.12500000        0.62324500  O
       atom_frac         0.99999500        0.00000000        0.62324600  Ti
       atom_frac         0.74999500        0.12500000        0.62324600  Ti
       atom_frac         0.59721600        0.12500000        0.62324600  O
       atom_frac         0.74999600        0.00000000        0.65153100  O
       atom_frac         0.99999700        0.25000000        0.37675400  O
       atom_frac         0.65277800        0.37500000        0.40503900  O
       atom_frac         0.74999900        0.25000000        0.40503900  Ti
       atom_frac         0.99999900        0.37500000        0.40503900  Ti
       atom_frac         0.84722000        0.37500000        0.40504000  O
       atom_frac         0.50000000        0.25000000        0.43332400  O
       atom_frac         0.74999600        0.25000000        0.44949000  O
       atom_frac         0.90277600        0.37500000        0.47777400  O
       atom_frac         0.99999700        0.25000000        0.47777500  Ti
       atom_frac         0.74999700        0.37500000        0.47777500  Ti
       atom_frac         0.59721800        0.37500000        0.47777500  O
       atom_frac         0.74999900        0.25000000        0.50606000  O
       atom_frac         0.99999400        0.25000000        0.52222500  O
       atom_frac         0.65277500        0.37500000        0.55051000  O
       atom_frac         0.74999600        0.25000000        0.55051000  Ti
       atom_frac         0.99999600        0.37500000        0.55051000  Ti
       atom_frac         0.84721700        0.37500000        0.55051100  O
       atom_frac         0.99999800        0.25000000        0.57879500  O
       atom_frac         0.74999300        0.25000000        0.59496100  O
       atom_frac         0.90277400        0.37500000        0.62324500  O
       atom_frac         0.99999500        0.25000000        0.62324600  Ti
       atom_frac         0.74999500        0.37500000        0.62324600  Ti
       atom_frac         0.59721600        0.37500000        0.62324600  O
       atom_frac         0.74999600        0.25000000        0.65153100  O
       atom_frac         0.49999700        0.50000000        0.37675400  O
       atom_frac         0.15277800        0.62500000        0.40503900  O
       atom_frac         0.24999900        0.50000000        0.40503900  Ti
       atom_frac         0.49999900        0.62500000        0.40503900  Ti
       atom_frac         0.34722000        0.62500000        0.40504000  O
       atom_frac         0.00000000        0.50000000        0.43332400  O
       atom_frac         0.24999600        0.50000000        0.44949000  O
       atom_frac         0.40277600        0.62500000        0.47777400  O
       atom_frac         0.49999700        0.50000000        0.47777500  Ti
       atom_frac         0.24999700        0.62500000        0.47777500  Ti
       atom_frac         0.09721800        0.62500000        0.47777500  O
       atom_frac         0.24999900        0.50000000        0.50606000  O
       atom_frac         0.49999400        0.50000000        0.52222500  O
       atom_frac         0.15277500        0.62500000        0.55051000  O
       atom_frac         0.24999600        0.50000000        0.55051000  Ti
       atom_frac         0.49999600        0.62500000        0.55051000  Ti
       atom_frac         0.34721700        0.62500000        0.55051100  O
       atom_frac         0.49999800        0.50000000        0.57879500  O
       atom_frac         0.24999300        0.50000000        0.59496100  O
       atom_frac         0.40277400        0.62500000        0.62324500  O
       atom_frac         0.49999500        0.50000000        0.62324600  Ti
       atom_frac         0.24999500        0.62500000        0.62324600  Ti
       atom_frac         0.09721600        0.62500000        0.62324600  O
       atom_frac         0.24999600        0.50000000        0.65153100  O
       atom_frac         0.49999700        0.75000000        0.37675400  O
       atom_frac         0.15277800        0.87500000        0.40503900  O
       atom_frac         0.24999900        0.75000000        0.40503900  Ti
       atom_frac         0.49999900        0.87500000        0.40503900  Ti
       atom_frac         0.34722000        0.87500000        0.40504000  O
       atom_frac         0.00000000        0.75000000        0.43332400  O
       atom_frac         0.24999600        0.75000000        0.44949000  O
       atom_frac         0.40277600        0.87500000        0.47777400  O
       atom_frac         0.49999700        0.75000000        0.47777500  Ti
       atom_frac         0.24999700        0.87500000        0.47777500  Ti
       atom_frac         0.09721800        0.87500000        0.47777500  O
       atom_frac         0.24999900        0.75000000        0.50606000  O
       atom_frac         0.49999400        0.75000000        0.52222500  O
       atom_frac         0.15277500        0.87500000        0.55051000  O
       atom_frac         0.24999600        0.75000000        0.55051000  Ti
       atom_frac         0.49999600        0.87500000        0.55051000  Ti
       atom_frac         0.34721700        0.87500000        0.55051100  O
       atom_frac         0.49999800        0.75000000        0.57879500  O
       atom_frac         0.24999300        0.75000000        0.59496100  O
       atom_frac         0.40277400        0.87500000        0.62324500  O
       atom_frac         0.49999500        0.75000000        0.62324600  Ti
       atom_frac         0.24999500        0.87500000        0.62324600  Ti
       atom_frac         0.09721600        0.87500000        0.62324600  O
       atom_frac         0.24999600        0.75000000        0.65153100  O
       atom_frac         0.99999700        0.50000000        0.37675400  O
       atom_frac         0.65277800        0.62500000        0.40503900  O
       atom_frac         0.74999900        0.50000000        0.40503900  Ti
       atom_frac         0.99999900        0.62500000        0.40503900  Ti
       atom_frac         0.84722000        0.62500000        0.40504000  O
       atom_frac         0.50000000        0.50000000        0.43332400  O
       atom_frac         0.74999600        0.50000000        0.44949000  O
       atom_frac         0.90277600        0.62500000        0.47777400  O
       atom_frac         0.99999700        0.50000000        0.47777500  Ti
       atom_frac         0.74999700        0.62500000        0.47777500  Ti
       atom_frac         0.59721800        0.62500000        0.47777500  O
       atom_frac         0.74999900        0.50000000        0.50606000  O
       atom_frac         0.99999400        0.50000000        0.52222500  O
       atom_frac         0.65277500        0.62500000        0.55051000  O
       atom_frac         0.74999600        0.50000000        0.55051000  Ti
       atom_frac         0.99999600        0.62500000        0.55051000  Ti
       atom_frac         0.84721700        0.62500000        0.55051100  O
       atom_frac         0.99999800        0.50000000        0.57879500  O
       atom_frac         0.74999300        0.50000000        0.59496100  O
       atom_frac         0.90277400        0.62500000        0.62324500  O
       atom_frac         0.99999500        0.50000000        0.62324600  Ti
       atom_frac         0.74999500        0.62500000        0.62324600  Ti
       atom_frac         0.59721600        0.62500000        0.62324600  O
       atom_frac         0.74999600        0.50000000        0.65153100  O
       atom_frac         0.99999700        0.75000000        0.37675400  O
       atom_frac         0.65277800        0.87500000        0.40503900  O
       atom_frac         0.74999900        0.75000000        0.40503900  Ti
       atom_frac         0.99999900        0.87500000        0.40503900  Ti
       atom_frac         0.84722000        0.87500000        0.40504000  O
       atom_frac         0.50000000        0.75000000        0.43332400  O
       atom_frac         0.74999600        0.75000000        0.44949000  O
       atom_frac         0.90277600        0.87500000        0.47777400  O
       atom_frac         0.99999700        0.75000000        0.47777500  Ti
       atom_frac         0.74999700        0.87500000        0.47777500  Ti
       atom_frac         0.59721800        0.87500000        0.47777500  O
       atom_frac         0.74999900        0.75000000        0.50606000  O
       atom_frac         0.99999400        0.75000000        0.52222500  O
       atom_frac         0.65277500        0.87500000        0.55051000  O
       atom_frac         0.74999600        0.75000000        0.55051000  Ti
       atom_frac         0.99999600        0.87500000        0.55051000  Ti
       atom_frac         0.84721700        0.87500000        0.55051100  O
       atom_frac         0.99999800        0.75000000        0.57879500  O
       atom_frac         0.74999300        0.75000000        0.59496100  O
       atom_frac         0.90277400        0.87500000        0.62324500  O
       atom_frac         0.99999500        0.75000000        0.62324600  Ti
       atom_frac         0.74999500        0.87500000        0.62324600  Ti
       atom_frac         0.59721600        0.87500000        0.62324600  O
       atom_frac         0.74999600        0.75000000        0.65153100  O

  Initial moments and charges:
  |  Atom   Moment         Charge        Species
  |     1   0.000000E+00   0.000000E+00   O
  |     2   0.000000E+00   0.000000E+00   O
  |     3   0.000000E+00   0.000000E+00   Ti
  |     4   0.000000E+00   0.000000E+00   Ti
  |     5   0.000000E+00   0.000000E+00   O
  |     6   0.000000E+00   0.000000E+00   O
  |     7   0.000000E+00   0.000000E+00   O
  |     8   0.000000E+00   0.000000E+00   O
  |     9   0.000000E+00   0.000000E+00   Ti
  |    10   0.000000E+00   0.000000E+00   Ti
  |    11   0.000000E+00   0.000000E+00   O
  |    12   0.000000E+00   0.000000E+00   O
  |    13   0.000000E+00   0.000000E+00   O
  |    14   0.000000E+00   0.000000E+00   O
  |    15   0.000000E+00   0.000000E+00   Ti
  |    16   0.000000E+00   0.000000E+00   Ti
  |    17   0.000000E+00   0.000000E+00   O
  |    18   0.000000E+00   0.000000E+00   O
  |    19   0.000000E+00   0.000000E+00   O
  |    20   0.000000E+00   0.000000E+00   O
  |    21   0.000000E+00   0.000000E+00   Ti
  |    22   0.000000E+00   0.000000E+00   Ti
  |    23   0.000000E+00   0.000000E+00   O
  |    24   0.000000E+00   0.000000E+00   O
  |    25   0.000000E+00   0.000000E+00   O
  |    26   0.000000E+00   0.000000E+00   O
  |    27   0.000000E+00   0.000000E+00   Ti
  |    28   0.000000E+00   0.000000E+00   Ti
  |    29   0.000000E+00   0.000000E+00   O
  |    30   0.000000E+00   0.000000E+00   O
  |    31   0.000000E+00   0.000000E+00   O
  |    32   0.000000E+00   0.000000E+00   O
  |    33   0.000000E+00   0.000000E+00   Ti
  |    34   0.000000E+00   0.000000E+00   Ti
  |    35   0.000000E+00   0.000000E+00   O
  |    36   0.000000E+00   0.000000E+00   O
  |    37   0.000000E+00   0.000000E+00   O
  |    38   0.000000E+00   0.000000E+00   O
  |    39   0.000000E+00   0.000000E+00   Ti
  |    40   0.000000E+00   0.000000E+00   Ti
  |    41   0.000000E+00   0.000000E+00   O
  |    42   0.000000E+00   0.000000E+00   O
  |    43   0.000000E+00   0.000000E+00   O
  |    44   0.000000E+00   0.000000E+00   O
  |    45   0.000000E+00   0.000000E+00   Ti
  |    46   0.000000E+00   0.000000E+00   Ti
  |    47   0.000000E+00   0.000000E+00   F
  |    48   0.000000E+00   0.000000E+00   O
  |    49   0.000000E+00   0.000000E+00   O
  |    50   0.000000E+00   0.000000E+00   O
  |    51   0.000000E+00   0.000000E+00   Ti
  |    52   0.000000E+00   0.000000E+00   Ti
  |    53   0.000000E+00   0.000000E+00   O
  |    54   0.000000E+00   0.000000E+00   O
  |    55   0.000000E+00   0.000000E+00   O
  |    56   0.000000E+00   0.000000E+00   O
  |    57   0.000000E+00   0.000000E+00   Ti
  |    58   0.000000E+00   0.000000E+00   Ti
  |    59   0.000000E+00   0.000000E+00   O
  |    60   0.000000E+00   0.000000E+00   O
  |    61   0.000000E+00   0.000000E+00   O
  |    62   0.000000E+00   0.000000E+00   O
  |    63   0.000000E+00   0.000000E+00   Ti
  |    64   0.000000E+00   0.000000E+00   Ti
  |    65   0.000000E+00   0.000000E+00   O
  |    66   0.000000E+00   0.000000E+00   O
  |    67   0.000000E+00   0.000000E+00   O
  |    68   0.000000E+00   0.000000E+00   O
  |    69   0.000000E+00   0.000000E+00   Ti
  |    70   0.000000E+00   0.000000E+00   Ti
  |    71   0.000000E+00   0.000000E+00   O
  |    72   0.000000E+00   0.000000E+00   O
  |    73   0.000000E+00   0.000000E+00   O
  |    74   0.000000E+00   0.000000E+00   O
  |    75   0.000000E+00   0.000000E+00   Ti
  |    76   0.000000E+00   0.000000E+00   Ti
  |    77   0.000000E+00   0.000000E+00   O
  |    78   0.000000E+00   0.000000E+00   O
  |    79   0.000000E+00   0.000000E+00   O
  |    80   0.000000E+00   0.000000E+00   O
  |    81   0.000000E+00   0.000000E+00   Ti
  |    82   0.000000E+00   0.000000E+00   Ti
  |    83   0.000000E+00   0.000000E+00   O
  |    84   0.000000E+00   0.000000E+00   O
  |    85   0.000000E+00   0.000000E+00   O
  |    86   0.000000E+00   0.000000E+00   O
  |    87   0.000000E+00   0.000000E+00   Ti
  |    88   0.000000E+00   0.000000E+00   Ti
  |    89   0.000000E+00   0.000000E+00   O
  |    90   0.000000E+00   0.000000E+00   O
  |    91   0.000000E+00   0.000000E+00   O
  |    92   0.000000E+00   0.000000E+00   O
  |    93   0.000000E+00   0.000000E+00   Ti
  |    94   0.000000E+00   0.000000E+00   Ti
  |    95   0.000000E+00   0.000000E+00   O
  |    96   0.000000E+00   0.000000E+00   O
  |    97   0.000000E+00   0.000000E+00   O
  |    98   0.000000E+00   0.000000E+00   O
  |    99   0.000000E+00   0.000000E+00   Ti
  |   100   0.000000E+00   0.000000E+00   Ti
  |   101   0.000000E+00   0.000000E+00   O
  |   102   0.000000E+00   0.000000E+00   O
  |   103   0.000000E+00   0.000000E+00   O
  |   104   0.000000E+00   0.000000E+00   O
  |   105   0.000000E+00   0.000000E+00   Ti
  |   106   0.000000E+00   0.000000E+00   Ti
  |   107   0.000000E+00   0.000000E+00   O
  |   108   0.000000E+00   0.000000E+00   O
  |   109   0.000000E+00   0.000000E+00   O
  |   110   0.000000E+00   0.000000E+00   O
  |   111   0.000000E+00   0.000000E+00   Ti
  |   112   0.000000E+00   0.000000E+00   Ti
  |   113   0.000000E+00   0.000000E+00   O
  |   114   0.000000E+00   0.000000E+00   O
  |   115   0.000000E+00   0.000000E+00   O
  |   116   0.000000E+00   0.000000E+00   O
  |   117   0.000000E+00   0.000000E+00   Ti
  |   118   0.000000E+00   0.000000E+00   Ti
  |   119   0.000000E+00   0.000000E+00   O
  |   120   0.000000E+00   0.000000E+00   O
  |   121   0.000000E+00   0.000000E+00   O
  |   122   0.000000E+00   0.000000E+00   O
  |   123   0.000000E+00   0.000000E+00   Ti
  |   124   0.000000E+00   0.000000E+00   Ti
  |   125   0.000000E+00   0.000000E+00   O
  |   126   0.000000E+00   0.000000E+00   O
  |   127   0.000000E+00   0.000000E+00   O
  |   128   0.000000E+00   0.000000E+00   O
  |   129   0.000000E+00   0.000000E+00   Ti
  |   130   0.000000E+00   0.000000E+00   Ti
  |   131   0.000000E+00   0.000000E+00   O
  |   132   0.000000E+00   0.000000E+00   O
  |   133   0.000000E+00   0.000000E+00   O
  |   134   0.000000E+00   0.000000E+00   O
  |   135   0.000000E+00   0.000000E+00   Ti
  |   136   0.000000E+00   0.000000E+00   Ti
  |   137   0.000000E+00   0.000000E+00   O
  |   138   0.000000E+00   0.000000E+00   O
  |   139   0.000000E+00   0.000000E+00   O
  |   140   0.000000E+00   0.000000E+00   O
  |   141   0.000000E+00   0.000000E+00   Ti
  |   142   0.000000E+00   0.000000E+00   Ti
  |   143   0.000000E+00   0.000000E+00   O
  |   144   0.000000E+00   0.000000E+00   O
  |   145   0.000000E+00   0.000000E+00   O
  |   146   0.000000E+00   0.000000E+00   O
  |   147   0.000000E+00   0.000000E+00   Ti
  |   148   0.000000E+00   0.000000E+00   Ti
  |   149   0.000000E+00   0.000000E+00   O
  |   150   0.000000E+00   0.000000E+00   O
  |   151   0.000000E+00   0.000000E+00   O
  |   152   0.000000E+00   0.000000E+00   O
  |   153   0.000000E+00   0.000000E+00   Ti
  |   154   0.000000E+00   0.000000E+00   Ti
  |   155   0.000000E+00   0.000000E+00   O
  |   156   0.000000E+00   0.000000E+00   O
  |   157   0.000000E+00   0.000000E+00   O
  |   158   0.000000E+00   0.000000E+00   O
  |   159   0.000000E+00   0.000000E+00   Ti
  |   160   0.000000E+00   0.000000E+00   Ti
  |   161   0.000000E+00   0.000000E+00   O
  |   162   0.000000E+00   0.000000E+00   O
  |   163   0.000000E+00   0.000000E+00   O
  |   164   0.000000E+00   0.000000E+00   O
  |   165   0.000000E+00   0.000000E+00   Ti
  |   166   0.000000E+00   0.000000E+00   Ti
  |   167   0.000000E+00   0.000000E+00   O
  |   168   0.000000E+00   0.000000E+00   O
  |   169   0.000000E+00   0.000000E+00   O
  |   170   0.000000E+00   0.000000E+00   O
  |   171   0.000000E+00   0.000000E+00   Ti
  |   172   0.000000E+00   0.000000E+00   Ti
  |   173   0.000000E+00   0.000000E+00   O
  |   174   0.000000E+00   0.000000E+00   O
  |   175   0.000000E+00   0.000000E+00   O
  |   176   0.000000E+00   0.000000E+00   O
  |   177   0.000000E+00   0.000000E+00   Ti
  |   178   0.000000E+00   0.000000E+00   Ti
  |   179   0.000000E+00   0.000000E+00   O
  |   180   0.000000E+00   0.000000E+00   O
  |   181   0.000000E+00   0.000000E+00   O
  |   182   0.000000E+00   0.000000E+00   O
  |   183   0.000000E+00   0.000000E+00   Ti
  |   184   0.000000E+00   0.000000E+00   Ti
  |   185   0.000000E+00   0.000000E+00   O
  |   186   0.000000E+00   0.000000E+00   O
  |   187   0.000000E+00   0.000000E+00   O
  |   188   0.000000E+00   0.000000E+00   O
  |   189   0.000000E+00   0.000000E+00   Ti
  |   190   0.000000E+00   0.000000E+00   Ti
  |   191   0.000000E+00   0.000000E+00   O
  |   192   0.000000E+00   0.000000E+00   O

  Slab Identifier: This is Z-oriented slab and maximum thickness of the vacuum is: 32.736 Angstrom.
 
  Finished reading input file 'geometry.in'.
 

 
  Consistency checks for stacksize environment parameter are next.
 
  | Maximum stacksize for task 0: unlimited
  | Maximum stacksize for task 1: unlimited
  | Maximum stacksize for task 2: unlimited
  | Maximum stacksize for task 3: unlimited
  | Maximum stacksize for task 4: unlimited
  | Maximum stacksize for task 5: unlimited
  | Maximum stacksize for task 6: unlimited
  | Maximum stacksize for task 7: unlimited
  | Maximum stacksize for task 8: unlimited
  | Maximum stacksize for task 9: unlimited
  | Maximum stacksize for task 10: unlimited
  | Maximum stacksize for task 11: unlimited
  | Maximum stacksize for task 12: unlimited
  | Maximum stacksize for task 13: unlimited
  | Maximum stacksize for task 14: unlimited
  | Maximum stacksize for task 15: unlimited
  | Maximum stacksize for task 16: unlimited
  | Maximum stacksize for task 17: unlimited
  | Maximum stacksize for task 18: unlimited
  | Maximum stacksize for task 19: unlimited
  | Maximum stacksize for task 20: unlimited
  | Maximum stacksize for task 21: unlimited
  | Maximum stacksize for task 22: unlimited
  | Maximum stacksize for task 23: unlimited
  | Maximum stacksize for task 24: unlimited
  | Maximum stacksize for task 25: unlimited
  | Maximum stacksize for task 26: unlimited
  | Maximum stacksize for task 27: unlimited
  | Maximum stacksize for task 28: unlimited
  | Maximum stacksize for task 29: unlimited
  | Maximum stacksize for task 30: unlimited
  | Maximum stacksize for task 31: unlimited
  | Current stacksize for task 0: unlimited
  | Current stacksize for task 1: unlimited
  | Current stacksize for task 2: unlimited
  | Current stacksize for task 3: unlimited
  | Current stacksize for task 4: unlimited
  | Current stacksize for task 5: unlimited
  | Current stacksize for task 6: unlimited
  | Current stacksize for task 7: unlimited
  | Current stacksize for task 8: unlimited
  | Current stacksize for task 9: unlimited
  | Current stacksize for task 10: unlimited
  | Current stacksize for task 11: unlimited
  | Current stacksize for task 12: unlimited
  | Current stacksize for task 13: unlimited
  | Current stacksize for task 14: unlimited
  | Current stacksize for task 15: unlimited
  | Current stacksize for task 16: unlimited
  | Current stacksize for task 17: unlimited
  | Current stacksize for task 18: unlimited
  | Current stacksize for task 19: unlimited
  | Current stacksize for task 20: unlimited
  | Current stacksize for task 21: unlimited
  | Current stacksize for task 22: unlimited
  | Current stacksize for task 23: unlimited
  | Current stacksize for task 24: unlimited
  | Current stacksize for task 25: unlimited
  | Current stacksize for task 26: unlimited
  | Current stacksize for task 27: unlimited
  | Current stacksize for task 28: unlimited
  | Current stacksize for task 29: unlimited
  | Current stacksize for task 30: unlimited
  | Current stacksize for task 31: unlimited
 
  Consistency checks for the contents of control.in are next.
 
  MPI_IN_PLACE appears to work with this MPI implementation.
  | Keeping use_mpi_in_place .true. (see manual).
  Target number of points in a grid batch is not set. Defaulting to  100
  Method for grid partitioning is not set. Defaulting to parallel hash+maxmin partitioning.
  Batch size limit is not set. Defaulting to    200
  By default, will store active basis functions for each batch.
  If in need of memory, prune_basis_once .false. can be used to disable this option.
  communication_type for Hartree potential was not specified.
  Defaulting to calc_hartree .
  Defaulting to Pulay charge density mixer.
  Pulay mixer: Number of relevant iterations not set.
  Defaulting to    8 iterations.
  Pulay mixer: Number of initial linear mixing iterations not set.
  Defaulting to    0 iterations.
  Work space size for distributed Hartree potential not set.
  Defaulting to   0.200000E+03 MB.
  Mixing parameter for charge density mixing has not been set.
  Using default: charge_mix_param =     0.0500.
  The mixing parameter will be adjusted in iteration number     2 of each s.c.f. cycle (i.e., each geometry step).
  Mixing parameter for spin density mixing has not been set.
  Using charge_mix_param as default:     0.0500.
  Algorithm-dependent basis array size parameters:
  | n_max_pulay                         :        8
  Maximum number of self-consistency iterations not provided.
  Presetting  1000 iterations.
  Presetting      1001 iterations before the initial mixing cycle
  is restarted anyway using the sc_init_iter criterion / keyword.
  Presetting a factor      1.000 between actual scf density residual
  and density convergence criterion sc_accuracy_rho below which sc_init_iter
  takes no effect.
 * No s.c.f. convergence criteria (sc_accuracy_*) were provided in control.in.
 * The run will proceed with a reasonable default guess, but please check whether.
 * the s.c.f. cycles seem to take too much or too little time.
  Calculation of forces was not defined in control.in. No forces will be calculated.
  Geometry relaxation not requested: no relaxation will be performed.
 * Notice: The s.c.f. convergence criterion sc_accuracy_rho was not provided.
 * We used to stop in this case, and ask the user to provide reasonable
 * scf convergence criteria. However, this led some users to employ criteria
 * that led to extremely long run times, e.g., for simple relaxation.
 * We now preset a default value for sc_accuracy_rho if it is not set.
 * You may still wish to check if this setting is too tight or too loose for your needs.
 * Based on n_atoms and forces and force-correction status, FHI-aims chose sc_accuracy_rho =  0.565685E-05 .
  No accuracy limit for integral partition fn. given. Defaulting to  0.1000E-14.
  No threshold value for u(r) in integrations given. Defaulting to  0.1000E-05.
  No occupation type (smearing scheme) given. Defaulting to Gaussian broadening, width =  0.1000E-01 eV.
  The width will be adjusted in iteration number     2 of each s.c.f. cycle (i.e., each geometry step).
  No accuracy for occupation numbers given. Defaulting to  0.1000E-12.
  No threshold value for occupation numbers given. Defaulting to  0.0000E+00.
  No accuracy for fermi level given. Defaulting to  0.1000E-19.
  Maximum # of iterations to find E_F not set. Defaulting to  200.
  Preferred method for the eigenvalue solver ('KS_method') not specified in 'control.in'.
  Calling BLACS routine to test compilation state
  Since ScaLAPACK support is enabled, defaulting to ELPA (via ELSI).
  Will not use alltoall communication since running on < 1024 CPUs.
  Threshold for basis singularities not set.
  Default threshold for basis singularities:  0.1000E-04
  partition_type (choice of integration weights) for integrals was not specified.
  | Using a version of the partition function of Stratmann and coworkers ('stratmann_sparse').
  | At each grid point, the set of atoms used to build the partition table is smoothly restricted to
  | only those atoms whose free-atom density would be non-zero at that grid point.
  Partitioning for Hartree potential was not defined. Using partition_type for integrals.
  | Adjusted default value of keyword multip_moments_threshold to:       0.10000000E-11
  | This value may affect high angular momentum components of the Hartree potential in periodic systems.
  Angular momentum expansion for Kerker preconditioner not set explicitly.
  | Using default value of   0
  No explicit requirement for turning off preconditioner.
  | By default, it will be turned off when the charge convergence reaches
  | sc_accuracy_rho  =   0.565685E-05
  No special mixing parameter while Kerker preconditioner is on.
  Using default: charge_mix_param =     0.0500.
  No q(lm)/r^(l+1) cutoff set for long-range Hartree potential.
  | Using default value of  0.100000E-09 .
  | Verify using the multipole_threshold keyword.
  Defaulting to new monopole extrapolation.
  Density update method: automatic selection selected.
  Using density matrix based charge density update.
  Using density matrix based charge density update.
  Using packed matrix style: index .
  Defaulting to use time-reversal symmetry for k-point grid.
  Charge integration errors on the 3D integration grid will be compensated
  by explicit normalization and distribution of residual charges.
  Use the "compensate_multipole_errors" flag to change this behaviour.
  Found no potential conflicts with setting 'use_local_index' for this calculation.
  Flag 'use_local_index' has not been set.
  Testing whether we classify this calculation as large-scale ...
  The calculation contains at least 100 atoms. This is most likely a large-scale calculation.
  Setting 'use_local_index' to .true.
 
  Consistency checks for the contents of geometry.in are next.
 

  Range separation radius for Ewald summation (hartree_convergence_parameter):      4.83256850 bohr.
 * Warning: Initial charge and total charge of the system are inconsistent.
 * Selected charge in control.in:     1.0000* Sum of initial charges in geometry.in:     0.0000
  Number of empty states per atom not set in control.in - providing a guess from actual geometry.
  | Total number of empty states used during s.c.f. cycle:      736
  If you use a very high smearing, use empty_states (per atom!) in control.in to increase this value.

  Structure-dependent array size parameters: 
  | Number of distinct atom types in initial rho :        3
  | Maximum number of distinct radial functions  :       23
  | Maximum number of basis functions            :     3776
  | Number of Kohn-Sham states (occupied + empty):     1952
------------------------------------------------------------
  After read_input_data [GB]:   1039.94

  Performing system and environment tests:
  *** Environment variable OMP_NUM_THREADS is not set
  *** For performance reasons you might want to set it to 1
  | Checking for ScaLAPACK...
  | Testing pdtran()...
  | All pdtran() tests passed.
  After prepare_system [GB]:   1039.61

------------------------------------------------------------
          Preparing all fixed parts of the calculation.
------------------------------------------------------------
[...]
  |   186        8.584334       -0.584334        3.844206        4.730095        0.010034
  |   187        8.626740       -0.626740        3.842751        4.773649        0.010340
  |   188        8.624431       -0.624431        3.859326        4.754198        0.010908
  |   189       20.729325        1.270675        6.093649       12.428457        2.085567        0.121652
  |   190       20.928561        1.071439        6.050020       12.514702        2.219164        0.144674
  |   191        8.630944       -0.630944        3.858780        4.761442        0.010723
  |   192        8.474384       -0.474384        3.882375        4.580972        0.011036
  |
  | Total     2432.000000        1.000000
 
  Summary of the per-atom spin analysis:
  |
  |  atom   spin      l=0         l=1         l=2         l=3
  |     1    0.000000    0.000000    0.000000   -0.000000
  |     2    0.000000    0.000000    0.000000    0.000000
  |     3    0.000000    0.000000   -0.000000   -0.000000   -0.000000
  |     4    0.000000    0.000000   -0.000000    0.000000   -0.000000
  |     5   -0.000000   -0.000000    0.000000   -0.000000
  |     6   -0.000000   -0.000000    0.000000   -0.000000
  |     7    0.000000    0.000000    0.000000   -0.000000
  |     8    0.000000    0.000000    0.000000   -0.000000
  |     9    0.000000    0.000000    0.000000   -0.000000    0.000000
  |    10   -0.000000   -0.000000   -0.000000    0.000000   -0.000000
  |    11   -0.000000   -0.000000   -0.000000   -0.000000
  |    12    0.000000    0.000000    0.000000    0.000000
  |    13   -0.000000   -0.000000    0.000000    0.000000
  |    14    0.000000    0.000000    0.000000    0.000000
  |    15   -0.000000   -0.000000    0.000000    0.000000   -0.000000
  |    16    0.000000    0.000000   -0.000000    0.000000   -0.000000
  |    17    0.000000    0.000000    0.000000    0.000000
  |    18   -0.000000    0.000000   -0.000000    0.000000
  |    19    0.000000   -0.000000    0.000000    0.000000
  |    20    0.000000    0.000000    0.000000   -0.000000
  |    21   -0.000000   -0.000000   -0.000000    0.000000   -0.000000
  |    22   -0.000000    0.000000   -0.000000    0.000000   -0.000000
  |    23    0.000000    0.000000    0.000000    0.000000
  |    24   -0.000000   -0.000000   -0.000000    0.000000
  |    25   -0.000000    0.000000   -0.000000    0.000000
  |    26    0.000000    0.000000   -0.000000   -0.000000
  |    27   -0.000000   -0.000000   -0.000000    0.000000   -0.000000
  |    28   -0.000000   -0.000000    0.000000    0.000000    0.000000
  |    29   -0.000000    0.000000   -0.000000    0.000000
  |    30   -0.000000   -0.000000   -0.000000   -0.000000
  |    31   -0.000000    0.000000   -0.000000    0.000000
  |    32   -0.000000   -0.000000    0.000000    0.000000
  |    33    0.000000   -0.000000    0.000000    0.000000   -0.000000
  |    34   -0.000000   -0.000000   -0.000000    0.000000    0.000000
  |    35   -0.000000    0.000000   -0.000000   -0.000000
  |    36   -0.000000   -0.000000   -0.000000   -0.000000
  |    37   -0.000000   -0.000000   -0.000000    0.000000
  |    38    0.000000   -0.000000    0.000000   -0.000000
  |    39    0.000000    0.000000    0.000000   -0.000000   -0.000000
  |    40    0.000000    0.000000   -0.000000    0.000000    0.000000
  |    41    0.000000    0.000000    0.000000    0.000000
  |    42    0.000000   -0.000000    0.000000    0.000000
  |    43   -0.000000   -0.000000   -0.000000   -0.000000
  |    44    0.000000    0.000000   -0.000000   -0.000000
  |    45    0.000000    0.000000    0.000000    0.000000   -0.000000
  |    46    0.000000    0.000000   -0.000000    0.000000   -0.000000
  |    47    0.000000    0.000000    0.000000    0.000000
  |    48    0.000000    0.000000    0.000000    0.000000
  |    49    0.000000    0.000000   -0.000000    0.000000
  |    50   -0.000000   -0.000000   -0.000000    0.000000
  |    51    0.000000    0.000000    0.000000    0.000000    0.000000
  |    52    0.000000    0.000000   -0.000000   -0.000000    0.000000
  |    53   -0.000000   -0.000000    0.000000    0.000000
  |    54   -0.000000   -0.000000   -0.000000    0.000000
  |    55   -0.000000   -0.000000   -0.000000   -0.000000
  |    56   -0.000000   -0.000000    0.000000    0.000000
  |    57   -0.000000    0.000000   -0.000000   -0.000000   -0.000000
  |    58    0.000000   -0.000000    0.000000    0.000000    0.000000
  |    59   -0.000000   -0.000000   -0.000000    0.000000
  |    60   -0.000000   -0.000000   -0.000000   -0.000000
  |    61   -0.000000    0.000000   -0.000000   -0.000000
  |    62    0.000000    0.000000    0.000000   -0.000000
  |    63    0.000000    0.000000   -0.000000   -0.000000   -0.000000
  |    64   -0.000000   -0.000000   -0.000000    0.000000   -0.000000
  |    65    0.000000    0.000000   -0.000000   -0.000000
  |    66    0.000000   -0.000000    0.000000    0.000000
  |    67    0.000000    0.000000    0.000000   -0.000000
  |    68   -0.000000   -0.000000   -0.000000   -0.000000
  |    69   -0.000000   -0.000000    0.000000   -0.000000   -0.000000
  |    70    0.000000    0.000000    0.000000   -0.000000   -0.000000
  |    71   -0.000000    0.000000   -0.000000   -0.000000
  |    72   -0.000000   -0.000000   -0.000000    0.000000
  |    73   -0.000000   -0.000000   -0.000000    0.000000
  |    74    0.000000    0.000000   -0.000000    0.000000
  |    75    0.000000    0.000000    0.000000    0.000000    0.000000
  |    76   -0.000000    0.000000   -0.000000   -0.000000   -0.000000
  |    77   -0.000000   -0.000000    0.000000    0.000000
  |    78    0.000000    0.000000    0.000000    0.000000
  |    79    0.000000   -0.000000    0.000000   -0.000000
  |    80   -0.000000    0.000000   -0.000000    0.000000
  |    81    0.000000    0.000000    0.000000    0.000000   -0.000000
  |    82   -0.000000   -0.000000   -0.000000   -0.000000   -0.000000
  |    83    0.000000    0.000000    0.000000   -0.000000
  |    84   -0.000000    0.000000   -0.000000   -0.000000
  |    85   -0.000000    0.000000   -0.000000    0.000000
  |    86    0.000000    0.000000    0.000000   -0.000000
  |    87   -0.000000   -0.000000    0.000000    0.000000    0.000000
  |    88   -0.000000   -0.000000   -0.000000   -0.000000   -0.000000
  |    89   -0.000000   -0.000000   -0.000000   -0.000000
  |    90    0.000000   -0.000000    0.000000    0.000000
  |    91   -0.000000   -0.000000   -0.000000   -0.000000
  |    92   -0.000000    0.000000   -0.000000    0.000000
  |    93   -0.000000    0.000000    0.000000   -0.000000   -0.000000
  |    94    0.000000    0.000000    0.000000    0.000000    0.000000
  |    95    0.000000    0.000000   -0.000000   -0.000000
  |    96   -0.000000   -0.000000   -0.000000    0.000000
  |    97    0.000000    0.000000    0.000000   -0.000000
  |    98    0.000000    0.000000    0.000000   -0.000000
  |    99    0.000000    0.000000   -0.000000    0.000000    0.000000
  |   100   -0.000000   -0.000000    0.000000   -0.000000    0.000000
  |   101   -0.000000   -0.000000   -0.000000    0.000000
  |   102    0.000000    0.000000    0.000000   -0.000000
  |   103    0.000000    0.000000   -0.000000   -0.000000
  |   104   -0.000000    0.000000   -0.000000   -0.000000
  |   105    0.000000    0.000000   -0.000000    0.000000   -0.000000
  |   106    0.000000    0.000000    0.000000   -0.000000   -0.000000
  |   107    0.000000   -0.000000    0.000000   -0.000000
  |   108    0.000000   -0.000000    0.000000   -0.000000
  |   109    0.000000    0.000000    0.000000   -0.000000
  |   110   -0.000000   -0.000000   -0.000000   -0.000000
  |   111   -0.000000    0.000000   -0.000000   -0.000000   -0.000000
  |   112   -0.000000   -0.000000    0.000000   -0.000000   -0.000000
  |   113    0.000000    0.000000   -0.000000    0.000000
  |   114   -0.000000   -0.000000    0.000000   -0.000000
  |   115   -0.000000    0.000000   -0.000000   -0.000000
  |   116    0.000000   -0.000000    0.000000   -0.000000
  |   117    0.000000    0.000000    0.000000   -0.000000    0.000000
  |   118    0.000000    0.000000   -0.000000    0.000000   -0.000000
  |   119    0.000000   -0.000000    0.000000    0.000000
  |   120   -0.000000   -0.000000    0.000000    0.000000
  |   121    0.000000    0.000000    0.000000   -0.000000
  |   122   -0.000000   -0.000000   -0.000000   -0.000000
  |   123   -0.000000   -0.000000    0.000000    0.000000    0.000000
  |   124    0.000000   -0.000000    0.000000    0.000000   -0.000000
  |   125    0.000000   -0.000000    0.000000    0.000000
  |   126    0.000000    0.000000    0.000000   -0.000000
  |   127    0.000000    0.000000    0.000000   -0.000000
  |   128    0.000000    0.000000    0.000000    0.000000
  |   129    0.000000   -0.000000    0.000000    0.000000    0.000000
  |   130    0.000000    0.000000    0.000000    0.000000   -0.000000
  |   131    0.000000    0.000000    0.000000   -0.000000
  |   132    0.000000    0.000000    0.000000    0.000000
  |   133   -0.000000    0.000000   -0.000000   -0.000000
  |   134   -0.000000    0.000000   -0.000000    0.000000
  |   135    0.000000   -0.000000    0.000000    0.000000   -0.000000
  |   136    0.000000    0.000000   -0.000000    0.000000    0.000000
  |   137   -0.000000    0.000000   -0.000000    0.000000
  |   138    0.000000    0.000000    0.000000    0.000000
  |   139   -0.000000   -0.000000   -0.000000   -0.000000
  |   140   -0.000000    0.000000   -0.000000   -0.000000
  |   141    0.000000    0.000000    0.000000    0.000000    0.000000
  |   142    0.000000    0.000000   -0.000000   -0.000000    0.000000
  |   143    0.000000   -0.000000    0.000000    0.000000
  |   144   -0.000000    0.000000   -0.000000   -0.000000
  |   145    0.000000    0.000000    0.000000   -0.000000
  |   146   -0.000000   -0.000000    0.000000   -0.000000
  |   147   -0.000000   -0.000000   -0.000000   -0.000000   -0.000000
  |   148   -0.000000    0.000000   -0.000000    0.000000   -0.000000
  |   149   -0.000000   -0.000000   -0.000000   -0.000000
  |   150    0.000000    0.000000    0.000000    0.000000
  |   151    0.000000    0.000000    0.000000    0.000000
  |   152   -0.000000   -0.000000    0.000000    0.000000
  |   153    0.000000    0.000000    0.000000   -0.000000    0.000000
  |   154    0.000000    0.000000    0.000000    0.000000    0.000000
  |   155   -0.000000   -0.000000   -0.000000    0.000000
  |   156   -0.000000    0.000000   -0.000000    0.000000
  |   157   -0.000000    0.000000   -0.000000    0.000000
  |   158    0.000000    0.000000    0.000000    0.000000
  |   159    0.000000    0.000000    0.000000   -0.000000   -0.000000
  |   160   -0.000000   -0.000000   -0.000000   -0.000000   -0.000000
  |   161    0.000000   -0.000000    0.000000    0.000000
  |   162    0.000000    0.000000    0.000000   -0.000000
  |   163   -0.000000   -0.000000    0.000000   -0.000000
  |   164    0.000000    0.000000   -0.000000   -0.000000
  |   165   -0.000000    0.000000   -0.000000   -0.000000   -0.000000
  |   166    0.000000    0.000000    0.000000   -0.000000   -0.000000
  |   167   -0.000000    0.000000   -0.000000    0.000000
  |   168    0.000000   -0.000000    0.000000    0.000000
  |   169   -0.000000    0.000000   -0.000000   -0.000000
  |   170    0.000000   -0.000000    0.000000    0.000000
  |   171    0.000000    0.000000    0.000000   -0.000000    0.000000
  |   172    0.000000   -0.000000    0.000000   -0.000000    0.000000
  |   173    0.000000    0.000000    0.000000   -0.000000
  |   174    0.000000    0.000000    0.000000    0.000000
  |   175   -0.000000   -0.000000   -0.000000   -0.000000
  |   176    0.000000    0.000000    0.000000   -0.000000
  |   177   -0.000000   -0.000000   -0.000000   -0.000000    0.000000
  |   178    0.000000    0.000000    0.000000    0.000000    0.000000
  |   179   -0.000000    0.000000   -0.000000    0.000000
  |   180   -0.000000   -0.000000   -0.000000    0.000000
  |   181    0.000000    0.000000    0.000000   -0.000000
  |   182    0.000000   -0.000000    0.000000   -0.000000
  |   183    0.000000    0.000000    0.000000    0.000000    0.000000
  |   184    0.000000    0.000000    0.000000   -0.000000   -0.000000
  |   185   -0.000000   -0.000000    0.000000    0.000000
  |   186    0.000000   -0.000000    0.000000    0.000000
  |   187   -0.000000   -0.000000   -0.000000   -0.000000
  |   188    0.000000    0.000000    0.000000   -0.000000
  |   189   -0.000000    0.000000    0.000000   -0.000000    0.000000
  |   190   -0.000000    0.000000   -0.000000   -0.000000    0.000000
  |   191    0.000000   -0.000000    0.000000    0.000000
  |   192   -0.000000   -0.000000    0.000000   -0.000000
  |
  | Total    0.000000
 
  Writing Mulliken decomposition to disk ...

  Mulliken analysis                                       :  max(cpu_time)    wall_clock(cpu1)
  | Time for Mulliken analysis                            :         22.843              22.868
  | Total time for Mulliken analysis                      :         22.843              22.868
------------------------------------------------------------

------------------------------------------------------------------------------
  Final output of selected total energy values:

  The following output summarizes some interesting total energy values
  at the end of a run (AFTER all relaxation, molecular dynamics, etc.).

  | Total energy of the DFT / Hartree-Fock s.c.f. calculation      :       -1749976.514055371 eV
  | Final zero-broadening corrected energy (caution - metals only) :       -1749976.514055377 eV
  | For reference only, the value of 1 Hartree used in FHI-aims is :             27.211384500 eV
  | For reference only, the overall average (free atom contribution
  | + realspace contribution) of the electrostatic potential after
  | s.c.f. convergence is                                          :             -4.983597561 eV

  Before relying on these values, please be sure to understand exactly which
  total energy value is referred to by a given number. Different objects may
  all carry the same name 'total energy'. Definitions:

  Total energy of the DFT / Hartree-Fock s.c.f. calculation:
  | Note that this energy does not include ANY quantities calculated after the
  | s.c.f. cycle, in particular not ANY RPA, MP2, etc. many-body perturbation terms.
  | Scalar relativistic effects have been included in the 'scaled ZORA' approximation.

  Final zero-broadening corrected energy:
  | For metallic systems only, a broadening of the occupation numbers at the Fermi
  | level can be extrapolated back to zero broadening by an electron-gas inspired
  | formula. For all systems that are not real metals, this value can be
  | meaningless and should be avoided.

------------------------------------------------------------------------------
  Methods described in the following list of references were used in this FHI-aims run.
  If you publish the results, please make sure to cite these reference if they apply.
  FHI-aims is an academic code, and for our developers (often, Ph.D. students
  and postdocs), scientific credit in the community is essential.
  Thank you for helping us!

  For any use of FHI-aims, please cite:

    Volker Blum, Ralf Gehrke, Felix Hanke, Paula Havu, Ville Havu,
    Xinguo Ren, Karsten Reuter, and Matthias Scheffler
    'Ab initio molecular simulations with numeric atom-centered orbitals'
    Computer Physics Communications 180, 2175-2196 (2009)
    http://doi.org/10.1016/j.cpc.2009.06.022


  The provided symmetry information was generated with SPGlib:

    Atsushi Togo, Yusuke Seto, Dimitar Pashov
    SPGlib 1.7.3 obtained from http://spglib.sourceforge.net
    Licence: New BSD license
    Copyright (C) 2008 Atsushi Togo


  The ELSI infrastructure was used in your run to solve the Kohn-Sham electronic structure.
  Please check out https://wordpress.elsi-interchange.org to learn more.
  If scalability is important for your project, please acknowledge ELSI by citing:

    V. W-z. Yu, F. Corsetti, A. Garcia, W. P. Huhn, M. Jacquelin, W. Jia,
    B. Lange, L. Lin, J. Lu, W. Mi, A. Seifitokaldani, A. Vazquez-Mayagoitia,
    C. Yang, H. Yang, and V. Blum
    'ELSI: A unified software interface for Kohn-Sham electronic structure solvers'
    Computer Physics Communications 222, 267-285 (2018).
    http://doi.org/10.1016/j.cpc.2017.09.007


  For the real-space grid partitioning and parallelization used in this calculation, please cite:

    Ville Havu, Volker Blum, Paula Havu, and Matthias Scheffler,
    'Efficient O(N) integration for all-electron electronic structure calculation'
    'using numerically tabulated basis functions'
    Journal of Computational Physics 228, 8367-8379 (2009).
    http://doi.org/10.1016/j.jcp.2009.08.008

  Of course, there are many other important community references, e.g., those cited in the
  above references. Our list is limited to references that describe implementations in the
  FHI-aims code. The reason is purely practical (length of this list) - please credit others as well.

   One or more s.c.f. cycles took more than 50 s.c.f. iterations.
   It might be worth adjusting your convergence settings. For example,
   metals need a larger broadening and a smaller "charge_mix_param" value than semiconductors.

------------------------------------------------------------
          Leaving FHI-aims.
          Date     :  20250324, Time     :  180455.756

          Computational steps:
          | Number of self-consistency cycles          :           62
          | Number of SCF (re)initializations          :            1

          Detailed time accounting                     :  max(cpu_time)    wall_clock(cpu1)
          | Total time                                  :     7523.234 s        7523.806 s
          | Preparation time                            :        0.516 s           0.514 s
          | Boundary condition initalization            :        0.089 s           0.089 s
          | Grid partitioning                           :        3.307 s           3.308 s
          | Preloading free-atom quantities on grid     :        5.257 s           5.256 s
          | Free-atom superposition energy              :        0.848 s           0.849 s
          | Total time for integrations                 :      880.425 s         880.444 s
          | Total time for solution of K.-S. equations  :     2815.439 s        2815.615 s
          | Total time for density update               :     1008.826 s        1008.898 s
          | Total time for mixing & preconditioning     :     2669.636 s        2669.754 s
          | Total time for Hartree multipole update     :        0.878 s           0.880 s
          | Total time for Hartree multipole sum        :       92.600 s          92.606 s
          | Total time for total energy evaluation      :        0.085 s           0.098 s
          | Total time for scaled ZORA corrections      :       21.229 s          21.233 s
          | Total time for Mulliken analysis            :       22.867 s          22.868 s

          Partial memory accounting:
          | Residual value for overall tracked memory usage across tasks:     0.000000 MB (should be 0.000000 MB)
          | Peak values for overall tracked memory usage:
          |   Minimum:      409.458 MB (on task 17 after allocating zora_vector2)
          |   Maximum:      552.910 MB (on task 13 after allocating zora_vector2)
          |   Average:      509.293 MB
          | Largest tracked array allocation:
          |   Minimum:      108.781 MB (ham_complex on task  0)
          |   Maximum:      145.656 MB (ham_complex on task  4)
          |   Average:      135.977 MB
          Note:  These values currently only include a subset of arrays which are explicitly tracked.
          The "true" memory usage will be greater.

          Have a nice day.
------------------------------------------------------------
