------------------------------------------------------------
          Invoking FHI-aims ...

          When using FHI-aims, please cite the following reference:

            Volker Blum, Ralf Gehrke, Felix Hanke, Paula Havu,
            Ville Havu, Xinguo Ren, Karsten Reuter, and Matthias Scheffler,
            'Ab Initio Molecular Simulations with Numeric Atom-Centered Orbitals',
            Computer Physics Communications 180, 2175-2196 (2009)

          In addition, many other developments in FHI-aims are likely important for
          your particular application. If so, please cite them. A partial list of references
          is written at the end of this file. Thank you for giving credit to the authors
          of these developments.

          For general information about FHI-aims please find us at

            https://fhi-aims.org

          Online tutorials can be found at

            https://fhi-aims-club.gitlab.io/tutorials/tutorials-overview/

          For any questions about FHI-aims, please visit our slack channel at

            https://fhi-aims.slack.com

          and our main development and support site at

            https://aims-git.rz-berlin.mpg.de .

          The latter site, in particular, has a wiki to collect information, as well
          as an issue tracker to log discussions, suggest improvements, and report issues
          or bugs. https://aims-git.rz-berlin.mpg.de is also the main development site
          of the project and all new and updated code versions can be obtained there.
          Please send an email to aims-coordinators@fhi-berlin.mpg.de and we will add
          you to these sites. They are for you and everyone is welcome there.

------------------------------------------------------------



  Date     :  20241007, Time     :  124325.825
  Time zero on CPU 1             :   0.515337000000000E+00  s.
  Internal wall clock time zero  :           497537005.825  s.

  FHI-aims created a unique identifier for this run for later identification
  aims_uuid : 03BA85E4-9BA7-408C-A528-50AFA9723414

  Build configuration of the current instance of FHI-aims
  -------------------------------------------------------
  FHI-aims version      : 240605
  Commit number         : b001b2e18
  CMake host system     : Linux-6.5.0-41-generic
  CMake version         : 3.22.1
  Fortran compiler      : /opt/intel/oneapi/mpi/2021.12/bin/mpiifort (IntelLLVM) version 2024.1.0
  Fortran compiler flags: -fc=ifx -O3 -ip -fp-model precise
  C compiler            : /opt/intel/oneapi/mpi/2021.12/bin/mpiicc (IntelLLVM) version 2024.1.0
  C compiler flags      : -cc=icx -O3 -ip -fp-model precise -std=gnu99
  C++ compiler          : /opt/intel/oneapi/mpi/2021.12/bin/mpiicpc (IntelLLVM) version 2024.1.0
  C++ compiler flags    : -cxx=icpx -O3 -ip -fp-model precise -std=c++11
  HIP compiler          :
  HIP compiler flags    :
  HIP GPU arch          :
  Using MPI
  Using ScaLAPACK
  Using LibXC
  Using i-PI
  Using RLSY
  Linking against: /opt/intel/oneapi/mkl/2024.1/lib/intel64/libmkl_intel_lp64.so
                   /opt/intel/oneapi/mkl/2024.1/lib/intel64/libmkl_sequential.so
                   /opt/intel/oneapi/mkl/2024.1/lib/intel64/libmkl_core.so
                   /opt/intel/oneapi/mkl/2024.1/lib/intel64/libmkl_blacs_intelmpi_lp64.so
                   /opt/intel/oneapi/mkl/2024.1/lib/intel64/libmkl_scalapack_lp64.so
                   /opt/intel/oneapi/mkl/2024.1/lib/intel64/libmkl_core.so

  Using       64 parallel tasks.
  Task        0 on host RSL-arvutus reporting.
  Task        1 on host RSL-arvutus reporting.
  Task        2 on host RSL-arvutus reporting.
  Task        3 on host RSL-arvutus reporting.
  Task        4 on host RSL-arvutus reporting.
  Task        5 on host RSL-arvutus reporting.
  Task        6 on host RSL-arvutus reporting.
  Task        7 on host RSL-arvutus reporting.
  Task        8 on host RSL-arvutus reporting.
  Task        9 on host RSL-arvutus reporting.
  Task       10 on host RSL-arvutus reporting.
  Task       11 on host RSL-arvutus reporting.
  Task       12 on host RSL-arvutus reporting.
  Task       13 on host RSL-arvutus reporting.
  Task       14 on host RSL-arvutus reporting.
  Task       15 on host RSL-arvutus reporting.
  Task       16 on host RSL-arvutus reporting.
  Task       17 on host RSL-arvutus reporting.
  Task       18 on host RSL-arvutus reporting.
  Task       19 on host RSL-arvutus reporting.
  Task       20 on host RSL-arvutus reporting.
  Task       21 on host RSL-arvutus reporting.
  Task       22 on host RSL-arvutus reporting.
  Task       23 on host RSL-arvutus reporting.
  Task       24 on host RSL-arvutus reporting.
  Task       25 on host RSL-arvutus reporting.
  Task       26 on host RSL-arvutus reporting.
  Task       27 on host RSL-arvutus reporting.
  Task       28 on host RSL-arvutus reporting.
  Task       29 on host RSL-arvutus reporting.
  Task       30 on host RSL-arvutus reporting.
  Task       31 on host RSL-arvutus reporting.
  Task       32 on host RSL-arvutus reporting.
  Task       33 on host RSL-arvutus reporting.
  Task       34 on host RSL-arvutus reporting.
  Task       35 on host RSL-arvutus reporting.
  Task       36 on host RSL-arvutus reporting.
  Task       37 on host RSL-arvutus reporting.
  Task       38 on host RSL-arvutus reporting.
  Task       39 on host RSL-arvutus reporting.
  Task       40 on host RSL-arvutus reporting.
  Task       41 on host RSL-arvutus reporting.
  Task       42 on host RSL-arvutus reporting.
  Task       43 on host RSL-arvutus reporting.
  Task       44 on host RSL-arvutus reporting.
  Task       45 on host RSL-arvutus reporting.
  Task       46 on host RSL-arvutus reporting.
  Task       47 on host RSL-arvutus reporting.
  Task       48 on host RSL-arvutus reporting.
  Task       49 on host RSL-arvutus reporting.
  Task       50 on host RSL-arvutus reporting.
  Task       51 on host RSL-arvutus reporting.
  Task       52 on host RSL-arvutus reporting.
  Task       53 on host RSL-arvutus reporting.
  Task       54 on host RSL-arvutus reporting.
  Task       55 on host RSL-arvutus reporting.
  Task       56 on host RSL-arvutus reporting.
  Task       57 on host RSL-arvutus reporting.
  Task       58 on host RSL-arvutus reporting.
  Task       59 on host RSL-arvutus reporting.
  Task       60 on host RSL-arvutus reporting.
  Task       61 on host RSL-arvutus reporting.
  Task       62 on host RSL-arvutus reporting.
  Task       63 on host RSL-arvutus reporting.

  Memory overcommitment is allowed on your operating system.

  Obtaining array dimensions for all initial allocations:
  
  -----------------------------------------------------------------------
  Parsing control.in (first pass over file, find array dimensions only).
  The contents of control.in will be repeated verbatim below
  unless switched off by setting 'verbatim_writeout .false.' .
  in the first line of control.in .
  -----------------------------------------------------------------------
  
    xc              pbe
    relativistic    atomic_zora scalar
    KS_method	  serial
    k_grid          1 2 1
  
    spin		  collinear
    default_initial_moment	0.0
  
    output          Mulliken
  
  
  ################################################################################
  #
  #  FHI-aims code project
  #  VB, Fritz-Haber Institut, 2009
  #
  #  Suggested "light" defaults for Ti atom (to be pasted into control.in file)
  #  Be sure to double-check any results obtained with these settings for post-processing,
  #  e.g., with the "tight" defaults and larger basis sets.
  #
  ################################################################################
    species        Ti
  #     global species definitions
      nucleus             22
      mass                47.867
  #
      l_hartree           4
  #
      cut_pot             3.5          1.5  1.0
      basis_dep_cutoff    1e-4
  #
      radial_base         48 5.0
      radial_multiplier   1
      angular_grids       specified
        division   0.5171   50
        division   0.9824  110
        division   1.2917  194
        division   1.4940  302
  #      division   1.6934  434
  #      division   1.8425  590
  #      division   2.1901  770
  #      division   2.2896  974
  #      division   2.8244 1202
  #      outer_grid  974
        outer_grid  302
  ################################################################################
  #
  #  Definition of "minimal" basis
  #
  ################################################################################
  #     valence basis states
      valence      4  s   2.
      valence      3  p   6.
      valence      3  d   2.
  #     ion occupancy
      ion_occ      4  s   1.
      ion_occ      3  p   6.
      ion_occ      3  d   1.
  ################################################################################
  #
  #  Suggested additional basis functions. For production calculations,
  #  uncomment them one after another (the most important basis functions are
  #  listed first).
  #
  #  Constructed for dimers: 1.6 A, 1.85 A, 2.5 A, 3.25 A, 4.25 A
  #
  ################################################################################
  #  "First tier" - improvements: -396.25 meV to -19.41 meV
       hydro 4 f 8
       hydro 3 d 2.7
       ionic 4 p auto
  #     hydro 5 g 11.6
       ionic 4 s auto
  #  "Second tier" - improvements: -16.30 meV to -2.03 meV
  #     hydro 3 d 4.4
  #     hydro 6 h 16
  #     hydro 4 f 9.4
  #     hydro 4 p 4.5
  #     hydro 1 s 0.5
  #  "Third tier" - improvements: -6.28 meV to -0.37 meV
  #     hydro 4 d 6.4
  #     hydro 4 f 10
  #     hydro 5 g 12
  #     hydro 2 p 1.7
  #     hydro 6 h 16.4
  #     hydro 4 s 3.8
  #  Further basis functions: -0.45 meV and smaller improvements
  #     hydro 3 d 8.8
  #     hydro 5 p 18
  #     hydro 4 f 22.4
  #     hydro 5 f 7.2  # -0.16 meV
  #     hydro 3 d 2.1  # -0.11 meV
  #     hydro 5 g 7.4  # -0.09 meV
  
  
  ################################################################################
  #
  #  FHI-aims code project
  #  VB, Fritz-Haber Institut, 2009
  #
  #  Suggested "light" defaults for O atom (to be pasted into control.in file)
  #  Be sure to double-check any results obtained with these settings for post-processing,
  #  e.g., with the "tight" defaults and larger basis sets.
  #
  ################################################################################
    species        O
  #     global species definitions
      nucleus             8
      mass                15.9994
  #
      l_hartree           4
  #
      cut_pot             3.5  1.5  1.0
      basis_dep_cutoff    1e-4
  #
      radial_base         36 5.0
      radial_multiplier   1
       angular_grids specified
        division   0.2659   50
        division   0.4451  110
        division   0.6052  194
        division   0.7543  302
  #      division   0.8014  434
  #      division   0.8507  590
  #      division   0.8762  770
  #      division   0.9023  974
  #      division   1.2339 1202
  #      outer_grid 974
        outer_grid 302
  ################################################################################
  #
  #  Definition of "minimal" basis
  #
  ################################################################################
  #     valence basis states
      valence      2  s   2.
      valence      2  p   4.
  #     ion occupancy
      ion_occ      2  s   1.
      ion_occ      2  p   3.
  ################################################################################
  #
  #  Suggested additional basis functions. For production calculations,
  #  uncomment them one after another (the most important basis functions are
  #  listed first).
  #
  #  Constructed for dimers: 1.0 A, 1.208 A, 1.5 A, 2.0 A, 3.0 A
  #
  ################################################################################
  #  "First tier" - improvements: -699.05 meV to -159.38 meV
       hydro 2 p 1.8
       hydro 3 d 7.6
       hydro 3 s 6.4
  #  "Second tier" - improvements: -49.91 meV to -5.39 meV
  #     hydro 4 f 11.6
  #     hydro 3 p 6.2
  #     hydro 3 d 5.6
  #     hydro 5 g 17.6
  #     hydro 1 s 0.75
  #  "Third tier" - improvements: -2.83 meV to -0.50 meV
  #     ionic 2 p auto
  #     hydro 4 f 10.8
  #     hydro 4 d 4.7
  #     hydro 2 s 6.8
  #  "Fourth tier" - improvements: -0.40 meV to -0.12 meV
  #     hydro 3 p 5
  #     hydro 3 s 3.3
  #     hydro 5 g 15.6
  #     hydro 4 f 17.6
  #     hydro 4 d 14
  # Further basis functions - -0.08 meV and below
  #     hydro 3 s 2.1
  #     hydro 4 d 11.6
  #     hydro 3 p 16
  #     hydro 2 s 17.2
  
  ################################################################################
  #
  #  "Core" basis functions and numerical settings for O atom.
  #  Based on “tight” defaults (V. Blum, 2009).
  #
  ################################################################################
    species        O1
  #     global species definitions
      nucleus             8.
      mass                15.9994
  #
      l_hartree           6
  #
      cut_pot             4.0  2.0  1.0
      basis_dep_cutoff    1e-4
  #
      radial_base         36 7.0
      radial_multiplier   2
       angular_grids specified
        division   0.1817   50
        division   0.3417  110
        division   0.4949  194
        division   0.6251  302
        division   0.8014  434
  #      division   0.8507  590
  #      division   0.8762  770
  #      division   0.9023  974
  #      division   1.2339 1202
  #      outer_grid 974
        outer_grid  434
  ################################################################################
  #
  #  Definition of "minimal" basis
  #
  ################################################################################
  #     valence basis states
      valence      2  s   2.
      valence      2  p   4.
  #     ion occupancy
      ion_occ      2  s   1.
      ion_occ      2  p   3.
  ################################################################################
  #
  #  Suggested additional basis functions. For production calculations,
  #  uncomment them one after another (the most important basis functions are
  #  listed first).
  #
  #  Constructed for dimers: 1.0 A, 1.208 A, 1.5 A, 2.0 A, 3.0 A
  #
  ################################################################################
  #  "First tier" - improvements: -699.05 meV to -159.38 meV
       hydro 2 p 1.8
       hydro 3 d 7.6
       hydro 3 s 6.4
  #  "Second tier" - improvements: -49.91 meV to -5.39 meV
       hydro 4 f 11.6
       hydro 3 p 6.2
       hydro 3 d 5.6
       hydro 5 g 17.6
       hydro 1 s 0.75
  #  "Third tier" - improvements: -2.83 meV to -0.50 meV
       ionic 2 p auto
       hydro 4 f 10.8
       hydro 4 d 4.7
       hydro 2 s 6.8
  #  "Fourth tier" - improvements: -0.40 meV to -0.12 meV
  #     hydro 3 p 5
  #     hydro 3 s 3.3
  #     hydro 5 g 15.6
  #     hydro 4 f 17.6
  #     hydro 4 d 14
  # Further basis functions - -0.08 meV and below
  #     hydro 3 s 2.1
  #     hydro 4 d 11.6
  #     hydro 3 p 16
  #     hydro 2 s 17.2
  
  # Additional basis functions for atom with a core hole
       hydro 1 s 12.0
       hydro 1 s 10.0
       hydro 1 s 6.0
       hydro 2 s 10.0
       hydro 2 p 8.0
       hydro 2 p 6.0
       hydro 3 d 8.0
  
  -----------------------------------------------------------------------
  Completed first pass over input file control.in .
  -----------------------------------------------------------------------
  
  
  -----------------------------------------------------------------------
  Parsing geometry.in (first pass over file, find array dimensions only).
  The contents of geometry.in will be repeated verbatim below
  unless switched off by setting 'verbatim_writeout .false.' .
  in the first line of geometry.in .
  -----------------------------------------------------------------------
  
  lattice_vector 26.264506 0.000000 0.000000
  lattice_vector 0.000000 11.891531 0.000000
  lattice_vector 0.000000 0.000000 84.989115
  
  atom 26.264506 0.000000 30.000000 Ti
  atom 3.283063 1.486441 30.000000 Ti
  atom 1.276729 1.486441 30.000029 O1
  atom 3.283086 0.000000 31.276767 O
  atom 6.566086 0.000000 32.006468 O
  atom 2.006317 1.486441 33.283206 O
  atom 3.283046 0.000000 33.283235 Ti
  atom 6.566109 1.486441 33.283235 Ti
  atom 4.559775 1.486441 33.283265 O
  atom 0.000005 0.000000 34.560002 O
  atom 3.283006 0.000000 35.289704 O
  atom 5.289362 1.486441 36.566441 O
  atom 6.566091 0.000000 36.566471 Ti
  atom 3.283028 1.486441 36.566471 Ti
  atom 1.276694 1.486441 36.566500 O
  atom 3.283051 0.000000 37.843237 O
  atom 6.566051 0.000000 38.572939 O
  atom 2.006281 1.486441 39.849676 O
  atom 3.283010 0.000000 39.849706 Ti
  atom 6.566074 1.486441 39.849706 Ti
  atom 4.559740 1.486441 39.849735 O
  atom 6.566096 0.000000 41.126473 O
  atom 3.282970 0.000000 41.856174 O
  atom 5.289327 1.486441 43.132912 O
  atom 6.566056 0.000000 43.132941 Ti
  atom 3.282993 1.486441 43.132941 Ti
  atom 1.276659 1.486441 43.132970 O
  atom 3.283015 0.000000 44.409708 O
  atom 6.566016 0.000000 45.139409 O
  atom 2.006246 1.486441 46.416147 O
  atom 3.282975 0.000000 46.416176 Ti
  atom 6.566039 1.486441 46.416176 Ti
  atom 4.559704 1.486441 46.416206 O
  atom 6.566061 0.000000 47.692943 O
  atom 3.282935 0.000000 48.422645 O
  atom 5.289292 1.486441 49.699382 O
  atom 6.566021 0.000000 49.699412 Ti
  atom 3.282958 1.486441 49.699412 Ti
  atom 1.276623 1.486441 49.699441 O
  atom 3.282980 0.000000 50.976178 O
  atom 6.565981 0.000000 51.705880 O
  atom 2.006211 1.486441 52.982617 O
  atom 3.282940 0.000000 52.982647 Ti
  atom 6.566003 1.486441 52.982647 Ti
  atom 4.559669 1.486441 52.982676 O
  atom 6.566026 0.000000 54.259414 O
  atom 3.282900 0.000000 54.989115 O
  atom 26.264506 2.972883 30.000000 Ti
  atom 3.283063 4.459324 30.000000 Ti
  atom 1.276729 4.459324 30.000029 O
  atom 3.283086 2.972883 31.276767 O
  atom 6.566086 2.972883 32.006468 O
  atom 2.006317 4.459324 33.283206 O
  atom 3.283046 2.972883 33.283235 Ti
  atom 6.566109 4.459324 33.283235 Ti
  atom 4.559775 4.459324 33.283265 O
  atom 0.000005 2.972883 34.560002 O
  atom 3.283006 2.972883 35.289704 O
  atom 5.289362 4.459324 36.566441 O
  atom 6.566091 2.972883 36.566471 Ti
  atom 3.283028 4.459324 36.566471 Ti
  atom 1.276694 4.459324 36.566500 O
  atom 3.283051 2.972883 37.843237 O
  atom 6.566051 2.972883 38.572939 O
  atom 2.006281 4.459324 39.849676 O
  atom 3.283010 2.972883 39.849706 Ti
  atom 6.566074 4.459324 39.849706 Ti
  atom 4.559740 4.459324 39.849735 O
  atom 6.566096 2.972883 41.126473 O
  atom 3.282970 2.972883 41.856174 O
  atom 5.289327 4.459324 43.132912 O
  atom 6.566056 2.972883 43.132941 Ti
  atom 3.282993 4.459324 43.132941 Ti
  atom 1.276659 4.459324 43.132970 O
  atom 3.283015 2.972883 44.409708 O
  atom 6.566016 2.972883 45.139409 O
  atom 2.006246 4.459324 46.416147 O
  atom 3.282975 2.972883 46.416176 Ti
  atom 6.566039 4.459324 46.416176 Ti
  atom 4.559704 4.459324 46.416206 O
  atom 6.566061 2.972883 47.692943 O
  atom 3.282935 2.972883 48.422645 O
  atom 5.289292 4.459324 49.699382 O
  atom 6.566021 2.972883 49.699412 Ti
  atom 3.282958 4.459324 49.699412 Ti
  atom 1.276623 4.459324 49.699441 O
  atom 3.282980 2.972883 50.976178 O
  atom 6.565981 2.972883 51.705880 O
  atom 2.006211 4.459324 52.982617 O
  atom 3.282940 2.972883 52.982647 Ti
  atom 6.566003 4.459324 52.982647 Ti
  atom 4.559669 4.459324 52.982676 O
  atom 6.566026 2.972883 54.259414 O
  atom 3.282900 2.972883 54.989115 O
  atom 26.264506 5.945765 30.000000 Ti
  atom 3.283063 7.432207 30.000000 Ti
  atom 1.276729 7.432207 30.000029 O
  atom 3.283086 5.945765 31.276767 O
  atom 6.566086 5.945765 32.006468 O
  atom 2.006317 7.432207 33.283206 O
  atom 3.283046 5.945765 33.283235 Ti
  atom 6.566109 7.432207 33.283235 Ti
  atom 4.559775 7.432207 33.283265 O
  atom 0.000005 5.945765 34.560002 O
  atom 3.283006 5.945765 35.289704 O
  atom 5.289362 7.432207 36.566441 O
  atom 6.566091 5.945765 36.566471 Ti
  atom 3.283028 7.432207 36.566471 Ti
  atom 1.276694 7.432207 36.566500 O
  atom 3.283051 5.945765 37.843237 O
  atom 6.566051 5.945765 38.572939 O
  atom 2.006281 7.432207 39.849676 O
  atom 3.283010 5.945765 39.849706 Ti
  atom 6.566074 7.432207 39.849706 Ti
  atom 4.559740 7.432207 39.849735 O
  atom 6.566096 5.945765 41.126473 O
  atom 3.282970 5.945765 41.856174 O
  atom 5.289327 7.432207 43.132912 O
  atom 6.566056 5.945765 43.132941 Ti
  atom 3.282993 7.432207 43.132941 Ti
  atom 1.276659 7.432207 43.132970 O
  atom 3.283015 5.945765 44.409708 O
  atom 6.566016 5.945765 45.139409 O
  atom 2.006246 7.432207 46.416147 O
  atom 3.282975 5.945765 46.416176 Ti
  atom 6.566039 7.432207 46.416176 Ti
  atom 4.559704 7.432207 46.416206 O
  atom 6.566061 5.945765 47.692943 O
  atom 3.282935 5.945765 48.422645 O
  atom 5.289292 7.432207 49.699382 O
  atom 6.566021 5.945765 49.699412 Ti
  atom 3.282958 7.432207 49.699412 Ti
  atom 1.276623 7.432207 49.699441 O
  atom 3.282980 5.945765 50.976178 O
  atom 6.565981 5.945765 51.705880 O
  atom 2.006211 7.432207 52.982617 O
  atom 3.282940 5.945765 52.982647 Ti
  atom 6.566003 7.432207 52.982647 Ti
  atom 4.559669 7.432207 52.982676 O
  atom 6.566026 5.945765 54.259414 O
  atom 3.282900 5.945765 54.989115 O
  atom 26.264506 8.918648 30.000000 Ti
  atom 3.283063 10.405089 30.000000 Ti
  atom 1.276729 10.405089 30.000029 O
  atom 3.283086 8.918648 31.276767 O
  atom 6.566086 8.918648 32.006468 O
  atom 2.006317 10.405089 33.283206 O
  atom 3.283046 8.918648 33.283235 Ti
  atom 6.566109 10.405089 33.283235 Ti
  atom 4.559775 10.405089 33.283265 O
  atom 0.000005 8.918648 34.560002 O
  atom 3.283006 8.918648 35.289704 O
  atom 5.289362 10.405089 36.566441 O
  atom 6.566091 8.918648 36.566471 Ti
  atom 3.283028 10.405089 36.566471 Ti
  atom 1.276694 10.405089 36.566500 O
  atom 3.283051 8.918648 37.843237 O
  atom 6.566051 8.918648 38.572939 O
  atom 2.006281 10.405089 39.849676 O
  atom 3.283010 8.918648 39.849706 Ti
  atom 6.566074 10.405089 39.849706 Ti
  atom 4.559740 10.405089 39.849735 O
  atom 6.566096 8.918648 41.126473 O
  atom 3.282970 8.918648 41.856174 O
  atom 5.289327 10.405089 43.132912 O
  atom 6.566056 8.918648 43.132941 Ti
  atom 3.282993 10.405089 43.132941 Ti
  atom 1.276659 10.405089 43.132970 O
  atom 3.283015 8.918648 44.409708 O
  atom 6.566016 8.918648 45.139409 O
  atom 2.006246 10.405089 46.416147 O
  atom 3.282975 8.918648 46.416176 Ti
  atom 6.566039 10.405089 46.416176 Ti
  atom 4.559704 10.405089 46.416206 O
  atom 6.566061 8.918648 47.692943 O
  atom 3.282935 8.918648 48.422645 O
  atom 5.289292 10.405089 49.699382 O
  atom 6.566021 8.918648 49.699412 Ti
  atom 3.282958 10.405089 49.699412 Ti
  atom 1.276623 10.405089 49.699441 O
  atom 3.282980 8.918648 50.976178 O
  atom 6.565981 8.918648 51.705880 O
  atom 2.006211 10.405089 52.982617 O
  atom 3.282940 8.918648 52.982647 Ti
  atom 6.566003 10.405089 52.982647 Ti
  atom 4.559669 10.405089 52.982676 O
  atom 6.566026 8.918648 54.259414 O
  atom 3.282900 8.918648 54.989115 O
  atom 6.566126 0.000000 30.000000 Ti
  atom 9.849190 1.486441 30.000000 Ti
  atom 7.842856 1.486441 30.000029 O
  atom 9.849212 0.000000 31.276767 O
  atom 13.132213 0.000000 32.006468 O
  atom 8.572443 1.486441 33.283206 O
  atom 9.849172 0.000000 33.283235 Ti
  atom 13.132235 1.486441 33.283235 Ti
  atom 11.125901 1.486441 33.283265 O
  atom 6.566131 0.000000 34.560002 O
  atom 9.849132 0.000000 35.289704 O
  atom 11.855489 1.486441 36.566441 O
  atom 13.132218 0.000000 36.566471 Ti
  atom 9.849155 1.486441 36.566471 Ti
  atom 7.842820 1.486441 36.566500 O
  atom 9.849177 0.000000 37.843237 O
  atom 13.132178 0.000000 38.572939 O
  atom 8.572408 1.486441 39.849676 O
  atom 9.849137 0.000000 39.849706 Ti
  atom 13.132200 1.486441 39.849706 Ti
  atom 11.125866 1.486441 39.849735 O
  atom 13.132223 0.000000 41.126473 O
  atom 9.849097 0.000000 41.856174 O
  atom 11.855454 1.486441 43.132912 O
  atom 13.132183 0.000000 43.132941 Ti
  atom 9.849119 1.486441 43.132941 Ti
  atom 7.842785 1.486441 43.132970 O
  atom 9.849142 0.000000 44.409708 O
  atom 13.132143 0.000000 45.139409 O
  atom 8.572373 1.486441 46.416147 O
  atom 9.849102 0.000000 46.416176 Ti
  atom 13.132165 1.486441 46.416176 Ti
  atom 11.125831 1.486441 46.416206 O
  atom 13.132188 0.000000 47.692943 O
  atom 9.849062 0.000000 48.422645 O
  atom 11.855418 1.486441 49.699382 O
  atom 13.132147 0.000000 49.699412 Ti
  atom 9.849084 1.486441 49.699412 Ti
  atom 7.842750 1.486441 49.699441 O
  atom 9.849107 0.000000 50.976178 O
  atom 13.132107 0.000000 51.705880 O
  atom 8.572338 1.486441 52.982617 O
  atom 9.849067 0.000000 52.982647 Ti
  atom 13.132130 1.486441 52.982647 Ti
  atom 11.125796 1.486441 52.982676 O
  atom 13.132152 0.000000 54.259414 O
  atom 9.849026 0.000000 54.989115 O
  atom 6.566126 2.972883 30.000000 Ti
  atom 9.849190 4.459324 30.000000 Ti
  atom 7.842856 4.459324 30.000029 O
  atom 9.849212 2.972883 31.276767 O
  atom 13.132213 2.972883 32.006468 O
  atom 8.572443 4.459324 33.283206 O
  atom 9.849172 2.972883 33.283235 Ti
  atom 13.132235 4.459324 33.283235 Ti
  atom 11.125901 4.459324 33.283265 O
  atom 6.566131 2.972883 34.560002 O
  atom 9.849132 2.972883 35.289704 O
  atom 11.855489 4.459324 36.566441 O
  atom 13.132218 2.972883 36.566471 Ti
  atom 9.849155 4.459324 36.566471 Ti
  atom 7.842820 4.459324 36.566500 O
  atom 9.849177 2.972883 37.843237 O
  atom 13.132178 2.972883 38.572939 O
  atom 8.572408 4.459324 39.849676 O
  atom 9.849137 2.972883 39.849706 Ti
  atom 13.132200 4.459324 39.849706 Ti
  atom 11.125866 4.459324 39.849735 O
  atom 13.132223 2.972883 41.126473 O
  atom 9.849097 2.972883 41.856174 O
  atom 11.855454 4.459324 43.132912 O
  atom 13.132183 2.972883 43.132941 Ti
  atom 9.849119 4.459324 43.132941 Ti
  atom 7.842785 4.459324 43.132970 O
  atom 9.849142 2.972883 44.409708 O
  atom 13.132143 2.972883 45.139409 O
  atom 8.572373 4.459324 46.416147 O
  atom 9.849102 2.972883 46.416176 Ti
  atom 13.132165 4.459324 46.416176 Ti
  atom 11.125831 4.459324 46.416206 O
  atom 13.132188 2.972883 47.692943 O
  atom 9.849062 2.972883 48.422645 O
  atom 11.855418 4.459324 49.699382 O
  atom 13.132147 2.972883 49.699412 Ti
  atom 9.849084 4.459324 49.699412 Ti
  atom 7.842750 4.459324 49.699441 O
  atom 9.849107 2.972883 50.976178 O
  atom 13.132107 2.972883 51.705880 O
  atom 8.572338 4.459324 52.982617 O
  atom 9.849067 2.972883 52.982647 Ti
  atom 13.132130 4.459324 52.982647 Ti
  atom 11.125796 4.459324 52.982676 O
  atom 13.132152 2.972883 54.259414 O
  atom 9.849026 2.972883 54.989115 O
  atom 6.566126 5.945765 30.000000 Ti
  atom 9.849190 7.432207 30.000000 Ti
  atom 7.842856 7.432207 30.000029 O
  atom 9.849212 5.945765 31.276767 O
  atom 13.132213 5.945765 32.006468 O
  atom 8.572443 7.432207 33.283206 O
  atom 9.849172 5.945765 33.283235 Ti
  atom 13.132235 7.432207 33.283235 Ti
  atom 11.125901 7.432207 33.283265 O
  atom 6.566131 5.945765 34.560002 O
  atom 9.849132 5.945765 35.289704 O
  atom 11.855489 7.432207 36.566441 O
  atom 13.132218 5.945765 36.566471 Ti
  atom 9.849155 7.432207 36.566471 Ti
  atom 7.842820 7.432207 36.566500 O
  atom 9.849177 5.945765 37.843237 O
  atom 13.132178 5.945765 38.572939 O
  atom 8.572408 7.432207 39.849676 O
  atom 9.849137 5.945765 39.849706 Ti
  atom 13.132200 7.432207 39.849706 Ti
  atom 11.125866 7.432207 39.849735 O
  atom 13.132223 5.945765 41.126473 O
  atom 9.849097 5.945765 41.856174 O
  atom 11.855454 7.432207 43.132912 O
  atom 13.132183 5.945765 43.132941 Ti
  atom 9.849119 7.432207 43.132941 Ti
  atom 7.842785 7.432207 43.132970 O
  atom 9.849142 5.945765 44.409708 O
  atom 13.132143 5.945765 45.139409 O
  atom 8.572373 7.432207 46.416147 O
  atom 9.849102 5.945765 46.416176 Ti
  atom 13.132165 7.432207 46.416176 Ti
  atom 11.125831 7.432207 46.416206 O
  atom 13.132188 5.945765 47.692943 O
  atom 9.849062 5.945765 48.422645 O
  atom 11.855418 7.432207 49.699382 O
  atom 13.132147 5.945765 49.699412 Ti
  atom 9.849084 7.432207 49.699412 Ti
  atom 7.842750 7.432207 49.699441 O
  atom 9.849107 5.945765 50.976178 O
  atom 13.132107 5.945765 51.705880 O
  atom 8.572338 7.432207 52.982617 O
  atom 9.849067 5.945765 52.982647 Ti
  atom 13.132130 7.432207 52.982647 Ti
  atom 11.125796 7.432207 52.982676 O
  atom 13.132152 5.945765 54.259414 O
  atom 9.849026 5.945765 54.989115 O
  atom 6.566126 8.918648 30.000000 Ti
  atom 9.849190 10.405089 30.000000 Ti
  atom 7.842856 10.405089 30.000029 O
  atom 9.849212 8.918648 31.276767 O
  atom 13.132213 8.918648 32.006468 O
  atom 8.572443 10.405089 33.283206 O
  atom 9.849172 8.918648 33.283235 Ti
  atom 13.132235 10.405089 33.283235 Ti
  atom 11.125901 10.405089 33.283265 O
  atom 6.566131 8.918648 34.560002 O
  atom 9.849132 8.918648 35.289704 O
  atom 11.855489 10.405089 36.566441 O
  atom 13.132218 8.918648 36.566471 Ti
  atom 9.849155 10.405089 36.566471 Ti
  atom 7.842820 10.405089 36.566500 O
  atom 9.849177 8.918648 37.843237 O
  atom 13.132178 8.918648 38.572939 O
  atom 8.572408 10.405089 39.849676 O
  atom 9.849137 8.918648 39.849706 Ti
  atom 13.132200 10.405089 39.849706 Ti
  atom 11.125866 10.405089 39.849735 O
  atom 13.132223 8.918648 41.126473 O
  atom 9.849097 8.918648 41.856174 O
  atom 11.855454 10.405089 43.132912 O
  atom 13.132183 8.918648 43.132941 Ti
  atom 9.849119 10.405089 43.132941 Ti
  atom 7.842785 10.405089 43.132970 O
  atom 9.849142 8.918648 44.409708 O
  atom 13.132143 8.918648 45.139409 O
  atom 8.572373 10.405089 46.416147 O
  atom 9.849102 8.918648 46.416176 Ti
  atom 13.132165 10.405089 46.416176 Ti
  atom 11.125831 10.405089 46.416206 O
  atom 13.132188 8.918648 47.692943 O
  atom 9.849062 8.918648 48.422645 O
  atom 11.855418 10.405089 49.699382 O
  atom 13.132147 8.918648 49.699412 Ti
  atom 9.849084 10.405089 49.699412 Ti
  atom 7.842750 10.405089 49.699441 O
  atom 9.849107 8.918648 50.976178 O
  atom 13.132107 8.918648 51.705880 O
  atom 8.572338 10.405089 52.982617 O
  atom 9.849067 8.918648 52.982647 Ti
  atom 13.132130 10.405089 52.982647 Ti
  atom 11.125796 10.405089 52.982676 O
  atom 13.132152 8.918648 54.259414 O
  atom 9.849026 8.918648 54.989115 O
  atom 13.132253 0.000000 30.000000 Ti
  atom 16.415316 1.486441 30.000000 Ti
  atom 14.408982 1.486441 30.000029 O
  atom 16.415339 0.000000 31.276767 O
  atom 19.698339 0.000000 32.006468 O
  atom 15.138570 1.486441 33.283206 O
  atom 16.415299 0.000000 33.283235 Ti
  atom 19.698362 1.486441 33.283235 Ti
  atom 17.692028 1.486441 33.283265 O
  atom 13.132258 0.000000 34.560002 O
  atom 16.415259 0.000000 35.289704 O
  atom 18.421615 1.486441 36.566441 O
  atom 19.698344 0.000000 36.566471 Ti
  atom 16.415281 1.486441 36.566471 Ti
  atom 14.408947 1.486441 36.566500 O
  atom 16.415304 0.000000 37.843237 O
  atom 19.698304 0.000000 38.572939 O
  atom 15.138534 1.486441 39.849676 O
  atom 16.415263 0.000000 39.849706 Ti
  atom 19.698327 1.486441 39.849706 Ti
  atom 17.691993 1.486441 39.849735 O
  atom 19.698349 0.000000 41.126473 O
  atom 16.415223 0.000000 41.856174 O
  atom 18.421580 1.486441 43.132912 O
  atom 19.698309 0.000000 43.132941 Ti
  atom 16.415246 1.486441 43.132941 Ti
  atom 14.408912 1.486441 43.132970 O
  atom 16.415268 0.000000 44.409708 O
  atom 19.698269 0.000000 45.139409 O
  atom 15.138499 1.486441 46.416147 O
  atom 16.415228 0.000000 46.416176 Ti
  atom 19.698292 1.486441 46.416176 Ti
  atom 17.691957 1.486441 46.416206 O
  atom 19.698314 0.000000 47.692943 O
  atom 16.415188 0.000000 48.422645 O
  atom 18.421545 1.486441 49.699382 O
  atom 19.698274 0.000000 49.699412 Ti
  atom 16.415211 1.486441 49.699412 Ti
  atom 14.408876 1.486441 49.699441 O
  atom 16.415233 0.000000 50.976178 O
  atom 19.698234 0.000000 51.705880 O
  atom 15.138464 1.486441 52.982617 O
  atom 16.415193 0.000000 52.982647 Ti
  atom 19.698256 1.486441 52.982647 Ti
  atom 17.691922 1.486441 52.982676 O
  atom 19.698279 0.000000 54.259414 O
  atom 16.415153 0.000000 54.989115 O
  atom 13.132253 2.972883 30.000000 Ti
  atom 16.415316 4.459324 30.000000 Ti
  atom 14.408982 4.459324 30.000029 O
  atom 16.415339 2.972883 31.276767 O
  atom 19.698339 2.972883 32.006468 O
  atom 15.138570 4.459324 33.283206 O
  atom 16.415299 2.972883 33.283235 Ti
  atom 19.698362 4.459324 33.283235 Ti
  atom 17.692028 4.459324 33.283265 O
  atom 13.132258 2.972883 34.560002 O
  atom 16.415259 2.972883 35.289704 O
  atom 18.421615 4.459324 36.566441 O
  atom 19.698344 2.972883 36.566471 Ti
  atom 16.415281 4.459324 36.566471 Ti
  atom 14.408947 4.459324 36.566500 O
  atom 16.415304 2.972883 37.843237 O
  atom 19.698304 2.972883 38.572939 O
  atom 15.138534 4.459324 39.849676 O
  atom 16.415263 2.972883 39.849706 Ti
  atom 19.698327 4.459324 39.849706 Ti
  atom 17.691993 4.459324 39.849735 O
  atom 19.698349 2.972883 41.126473 O
  atom 16.415223 2.972883 41.856174 O
  atom 18.421580 4.459324 43.132912 O
  atom 19.698309 2.972883 43.132941 Ti
  atom 16.415246 4.459324 43.132941 Ti
  atom 14.408912 4.459324 43.132970 O
  atom 16.415268 2.972883 44.409708 O
  atom 19.698269 2.972883 45.139409 O
  atom 15.138499 4.459324 46.416147 O
  atom 16.415228 2.972883 46.416176 Ti
  atom 19.698292 4.459324 46.416176 Ti
  atom 17.691957 4.459324 46.416206 O
  atom 19.698314 2.972883 47.692943 O
  atom 16.415188 2.972883 48.422645 O
  atom 18.421545 4.459324 49.699382 O
  atom 19.698274 2.972883 49.699412 Ti
  atom 16.415211 4.459324 49.699412 Ti
  atom 14.408876 4.459324 49.699441 O
  atom 16.415233 2.972883 50.976178 O
  atom 19.698234 2.972883 51.705880 O
  atom 15.138464 4.459324 52.982617 O
  atom 16.415193 2.972883 52.982647 Ti
  atom 19.698256 4.459324 52.982647 Ti
  atom 17.691922 4.459324 52.982676 O
  atom 19.698279 2.972883 54.259414 O
  atom 16.415153 2.972883 54.989115 O
  atom 13.132253 5.945765 30.000000 Ti
  atom 16.415316 7.432207 30.000000 Ti
  atom 14.408982 7.432207 30.000029 O
  atom 16.415339 5.945765 31.276767 O
  atom 19.698339 5.945765 32.006468 O
  atom 15.138570 7.432207 33.283206 O
  atom 16.415299 5.945765 33.283235 Ti
  atom 19.698362 7.432207 33.283235 Ti
  atom 17.692028 7.432207 33.283265 O
  atom 13.132258 5.945765 34.560002 O
  atom 16.415259 5.945765 35.289704 O
  atom 18.421615 7.432207 36.566441 O
  atom 19.698344 5.945765 36.566471 Ti
  atom 16.415281 7.432207 36.566471 Ti
  atom 14.408947 7.432207 36.566500 O
  atom 16.415304 5.945765 37.843237 O
  atom 19.698304 5.945765 38.572939 O
  atom 15.138534 7.432207 39.849676 O
  atom 16.415263 5.945765 39.849706 Ti
  atom 19.698327 7.432207 39.849706 Ti
  atom 17.691993 7.432207 39.849735 O
  atom 19.698349 5.945765 41.126473 O
  atom 16.415223 5.945765 41.856174 O
  atom 18.421580 7.432207 43.132912 O
  atom 19.698309 5.945765 43.132941 Ti
  atom 16.415246 7.432207 43.132941 Ti
  atom 14.408912 7.432207 43.132970 O
  atom 16.415268 5.945765 44.409708 O
  atom 19.698269 5.945765 45.139409 O
  atom 15.138499 7.432207 46.416147 O
  atom 16.415228 5.945765 46.416176 Ti
  atom 19.698292 7.432207 46.416176 Ti
  atom 17.691957 7.432207 46.416206 O
  atom 19.698314 5.945765 47.692943 O
  atom 16.415188 5.945765 48.422645 O
  atom 18.421545 7.432207 49.699382 O
  atom 19.698274 5.945765 49.699412 Ti
  atom 16.415211 7.432207 49.699412 Ti
  atom 14.408876 7.432207 49.699441 O
  atom 16.415233 5.945765 50.976178 O
  atom 19.698234 5.945765 51.705880 O
  atom 15.138464 7.432207 52.982617 O
  atom 16.415193 5.945765 52.982647 Ti
  atom 19.698256 7.432207 52.982647 Ti
  atom 17.691922 7.432207 52.982676 O
  atom 19.698279 5.945765 54.259414 O
  atom 16.415153 5.945765 54.989115 O
  atom 13.132253 8.918648 30.000000 Ti
  atom 16.415316 10.405089 30.000000 Ti
  atom 14.408982 10.405089 30.000029 O
  atom 16.415339 8.918648 31.276767 O
  atom 19.698339 8.918648 32.006468 O
  atom 15.138570 10.405089 33.283206 O
  atom 16.415299 8.918648 33.283235 Ti
  atom 19.698362 10.405089 33.283235 Ti
  atom 17.692028 10.405089 33.283265 O
  atom 13.132258 8.918648 34.560002 O
  atom 16.415259 8.918648 35.289704 O
  atom 18.421615 10.405089 36.566441 O
  atom 19.698344 8.918648 36.566471 Ti
  atom 16.415281 10.405089 36.566471 Ti
  atom 14.408947 10.405089 36.566500 O
  atom 16.415304 8.918648 37.843237 O
  atom 19.698304 8.918648 38.572939 O
  atom 15.138534 10.405089 39.849676 O
  atom 16.415263 8.918648 39.849706 Ti
  atom 19.698327 10.405089 39.849706 Ti
  atom 17.691993 10.405089 39.849735 O
  atom 19.698349 8.918648 41.126473 O
  atom 16.415223 8.918648 41.856174 O
  atom 18.421580 10.405089 43.132912 O
  atom 19.698309 8.918648 43.132941 Ti
  atom 16.415246 10.405089 43.132941 Ti
  atom 14.408912 10.405089 43.132970 O
  atom 16.415268 8.918648 44.409708 O
  atom 19.698269 8.918648 45.139409 O
  atom 15.138499 10.405089 46.416147 O
  atom 16.415228 8.918648 46.416176 Ti
  atom 19.698292 10.405089 46.416176 Ti
  atom 17.691957 10.405089 46.416206 O
  atom 19.698314 8.918648 47.692943 O
  atom 16.415188 8.918648 48.422645 O
  atom 18.421545 10.405089 49.699382 O
  atom 19.698274 8.918648 49.699412 Ti
  atom 16.415211 10.405089 49.699412 Ti
  atom 14.408876 10.405089 49.699441 O
  atom 16.415233 8.918648 50.976178 O
  atom 19.698234 8.918648 51.705880 O
  atom 15.138464 10.405089 52.982617 O
  atom 16.415193 8.918648 52.982647 Ti
  atom 19.698256 10.405089 52.982647 Ti
  atom 17.691922 10.405089 52.982676 O
  atom 19.698279 8.918648 54.259414 O
  atom 16.415153 8.918648 54.989115 O
  atom 19.698379 0.000000 30.000000 Ti
  atom 22.981443 1.486441 30.000000 Ti
  atom 20.975109 1.486441 30.000029 O
  atom 22.981465 0.000000 31.276767 O
  atom 26.264466 0.000000 32.006468 O
  atom 21.704696 1.486441 33.283206 O
  atom 22.981425 0.000000 33.283235 Ti
  atom 26.264488 1.486441 33.283235 Ti
  atom 24.258154 1.486441 33.283265 O
  atom 19.698384 0.000000 34.560002 O
  atom 22.981385 0.000000 35.289704 O
  atom 24.987742 1.486441 36.566441 O
  atom 26.264471 0.000000 36.566471 Ti
  atom 22.981408 1.486441 36.566471 Ti
  atom 20.975073 1.486441 36.566500 O
  atom 22.981430 0.000000 37.843237 O
  atom 26.264431 0.000000 38.572939 O
  atom 21.704661 1.486441 39.849676 O
  atom 22.981390 0.000000 39.849706 Ti
  atom 26.264453 1.486441 39.849706 Ti
  atom 24.258119 1.486441 39.849735 O
  atom 26.264476 0.000000 41.126473 O
  atom 22.981350 0.000000 41.856174 O
  atom 24.987707 1.486441 43.132912 O
  atom 26.264436 0.000000 43.132941 Ti
  atom 22.981372 1.486441 43.132941 Ti
  atom 20.975038 1.486441 43.132970 O
  atom 22.981395 0.000000 44.409708 O
  atom 26.264396 0.000000 45.139409 O
  atom 21.704626 1.486441 46.416147 O
  atom 22.981355 0.000000 46.416176 Ti
  atom 26.264418 1.486441 46.416176 Ti
  atom 24.258084 1.486441 46.416206 O
  atom 26.264441 0.000000 47.692943 O
  atom 22.981315 0.000000 48.422645 O
  atom 24.987671 1.486441 49.699382 O
  atom 26.264400 0.000000 49.699412 Ti
  atom 22.981337 1.486441 49.699412 Ti
  atom 20.975003 1.486441 49.699441 O
  atom 22.981360 0.000000 50.976178 O
  atom 26.264360 0.000000 51.705880 O
  atom 21.704591 1.486441 52.982617 O
  atom 22.981320 0.000000 52.982647 Ti
  atom 26.264383 1.486441 52.982647 Ti
  atom 24.258049 1.486441 52.982676 O
  atom 26.264405 0.000000 54.259414 O
  atom 22.981279 0.000000 54.989115 O
  atom 19.698379 2.972883 30.000000 Ti
  atom 22.981443 4.459324 30.000000 Ti
  atom 20.975109 4.459324 30.000029 O
  atom 22.981465 2.972883 31.276767 O
  atom 26.264466 2.972883 32.006468 O
  atom 21.704696 4.459324 33.283206 O
  atom 22.981425 2.972883 33.283235 Ti
  atom 26.264488 4.459324 33.283235 Ti
  atom 24.258154 4.459324 33.283265 O
  atom 19.698384 2.972883 34.560002 O
  atom 22.981385 2.972883 35.289704 O
  atom 24.987742 4.459324 36.566441 O
  atom 26.264471 2.972883 36.566471 Ti
  atom 22.981408 4.459324 36.566471 Ti
  atom 20.975073 4.459324 36.566500 O
  atom 22.981430 2.972883 37.843237 O
  atom 26.264431 2.972883 38.572939 O
  atom 21.704661 4.459324 39.849676 O
  atom 22.981390 2.972883 39.849706 Ti
  atom 26.264453 4.459324 39.849706 Ti
  atom 24.258119 4.459324 39.849735 O
  atom 26.264476 2.972883 41.126473 O
  atom 22.981350 2.972883 41.856174 O
  atom 24.987707 4.459324 43.132912 O
  atom 26.264436 2.972883 43.132941 Ti
  atom 22.981372 4.459324 43.132941 Ti
  atom 20.975038 4.459324 43.132970 O
  atom 22.981395 2.972883 44.409708 O
  atom 26.264396 2.972883 45.139409 O
  atom 21.704626 4.459324 46.416147 O
  atom 22.981355 2.972883 46.416176 Ti
  atom 26.264418 4.459324 46.416176 Ti
  atom 24.258084 4.459324 46.416206 O
  atom 26.264441 2.972883 47.692943 O
  atom 22.981315 2.972883 48.422645 O
  atom 24.987671 4.459324 49.699382 O
  atom 26.264400 2.972883 49.699412 Ti
  atom 22.981337 4.459324 49.699412 Ti
  atom 20.975003 4.459324 49.699441 O
  atom 22.981360 2.972883 50.976178 O
  atom 26.264360 2.972883 51.705880 O
  atom 21.704591 4.459324 52.982617 O
  atom 22.981320 2.972883 52.982647 Ti
  atom 26.264383 4.459324 52.982647 Ti
  atom 24.258049 4.459324 52.982676 O
  atom 26.264405 2.972883 54.259414 O
  atom 22.981279 2.972883 54.989115 O
  atom 19.698379 5.945765 30.000000 Ti
  atom 22.981443 7.432207 30.000000 Ti
  atom 20.975109 7.432207 30.000029 O
  atom 22.981465 5.945765 31.276767 O
  atom 26.264466 5.945765 32.006468 O
  atom 21.704696 7.432207 33.283206 O
  atom 22.981425 5.945765 33.283235 Ti
  atom 26.264488 7.432207 33.283235 Ti
  atom 24.258154 7.432207 33.283265 O
  atom 19.698384 5.945765 34.560002 O
  atom 22.981385 5.945765 35.289704 O
  atom 24.987742 7.432207 36.566441 O
  atom 26.264471 5.945765 36.566471 Ti
  atom 22.981408 7.432207 36.566471 Ti
  atom 20.975073 7.432207 36.566500 O
  atom 22.981430 5.945765 37.843237 O
  atom 26.264431 5.945765 38.572939 O
  atom 21.704661 7.432207 39.849676 O
  atom 22.981390 5.945765 39.849706 Ti
  atom 26.264453 7.432207 39.849706 Ti
  atom 24.258119 7.432207 39.849735 O
  atom 26.264476 5.945765 41.126473 O
  atom 22.981350 5.945765 41.856174 O
  atom 24.987707 7.432207 43.132912 O
  atom 26.264436 5.945765 43.132941 Ti
  atom 22.981372 7.432207 43.132941 Ti
  atom 20.975038 7.432207 43.132970 O
  atom 22.981395 5.945765 44.409708 O
  atom 26.264396 5.945765 45.139409 O
  atom 21.704626 7.432207 46.416147 O
  atom 22.981355 5.945765 46.416176 Ti
  atom 26.264418 7.432207 46.416176 Ti
  atom 24.258084 7.432207 46.416206 O
  atom 26.264441 5.945765 47.692943 O
  atom 22.981315 5.945765 48.422645 O
  atom 24.987671 7.432207 49.699382 O
  atom 26.264400 5.945765 49.699412 Ti
  atom 22.981337 7.432207 49.699412 Ti
  atom 20.975003 7.432207 49.699441 O
  atom 22.981360 5.945765 50.976178 O
  atom 26.264360 5.945765 51.705880 O
  atom 21.704591 7.432207 52.982617 O
  atom 22.981320 5.945765 52.982647 Ti
  atom 26.264383 7.432207 52.982647 Ti
  atom 24.258049 7.432207 52.982676 O
  atom 26.264405 5.945765 54.259414 O
  atom 22.981279 5.945765 54.989115 O
  atom 19.698379 8.918648 30.000000 Ti
  atom 22.981443 10.405089 30.000000 Ti
  atom 20.975109 10.405089 30.000029 O
  atom 22.981465 8.918648 31.276767 O
  atom 26.264466 8.918648 32.006468 O
  atom 21.704696 10.405089 33.283206 O
  atom 22.981425 8.918648 33.283235 Ti
  atom 26.264488 10.405089 33.283235 Ti
  atom 24.258154 10.405089 33.283265 O
  atom 19.698384 8.918648 34.560002 O
  atom 22.981385 8.918648 35.289704 O
  atom 24.987742 10.405089 36.566441 O
  atom 26.264471 8.918648 36.566471 Ti
  atom 22.981408 10.405089 36.566471 Ti
  atom 20.975073 10.405089 36.566500 O
  atom 22.981430 8.918648 37.843237 O
  atom 26.264431 8.918648 38.572939 O
  atom 21.704661 10.405089 39.849676 O
  atom 22.981390 8.918648 39.849706 Ti
  atom 26.264453 10.405089 39.849706 Ti
  atom 24.258119 10.405089 39.849735 O
  atom 26.264476 8.918648 41.126473 O
  atom 22.981350 8.918648 41.856174 O
  atom 24.987707 10.405089 43.132912 O
  atom 26.264436 8.918648 43.132941 Ti
  atom 22.981372 10.405089 43.132941 Ti
  atom 20.975038 10.405089 43.132970 O
  atom 22.981395 8.918648 44.409708 O
  atom 26.264396 8.918648 45.139409 O
  atom 21.704626 10.405089 46.416147 O
  atom 22.981355 8.918648 46.416176 Ti
  atom 26.264418 10.405089 46.416176 Ti
  atom 24.258084 10.405089 46.416206 O
  atom 26.264441 8.918648 47.692943 O
  atom 22.981315 8.918648 48.422645 O
  atom 24.987671 10.405089 49.699382 O
  atom 26.264400 8.918648 49.699412 Ti
  atom 22.981337 10.405089 49.699412 Ti
  atom 20.975003 10.405089 49.699441 O
  atom 22.981360 8.918648 50.976178 O
  atom 26.264360 8.918648 51.705880 O
  atom 21.704591 10.405089 52.982617 O
  atom 22.981320 8.918648 52.982647 Ti
  atom 26.264383 10.405089 52.982647 Ti
  atom 24.258049 10.405089 52.982676 O
  atom 26.264405 8.918648 54.259414 O
  atom 22.981279 8.918648 54.989115 O
  
  -----------------------------------------------------------------------
  Completed first pass over input file geometry.in .
  -----------------------------------------------------------------------
  

  Basic array size parameters:
  | Number of species                 :        3
  | Number of atoms                   :      752
  | Number of lattice vectors         :        3
  | Max. basis fn. angular momentum   :        4
  | Max. atomic/ionic basis occupied n:        4
  | Max. number of basis fn. types    :        3
  | Max. radial fns per species/type  :       18
  | Max. logarithmic grid size        :     1383
  | Max. radial integration grid size :       73
  | Max. angular integration grid size:      434
  | Max. angular grid division number :        8
  | Radial grid for Hartree potential :     1383
  | Number of spin channels           :        2

------------------------------------------------------------
          Reading file control.in.
------------------------------------------------------------
  XC: Using PBE gradient-corrected functionals.
  Scalar relativistic treatment of kinetic energy: on-site free-atom approximation to ZORA.
  Kohn-Sham eigenvalues and eigenfunctions calculated by LAPACK via ELSI.
  Found k-point grid:         1         2         1
  Spin treatment: Spin density functional theory - collinear spins.
  Initial spin moment per atom:   0.0000
  Mulliken charge analysis will be performed and summarised to the main output.
  Full Mulliken charge analysis will be written to file 'Mulliken.out'.
 
  Reading configuration options for species Ti                  .
  | Found nuclear charge :  22.0000
  | Found atomic mass :    47.8670000000000      amu
  | Found l_max for Hartree potential  :   4
  | Found cutoff potl. onset [A], width [A], scale factor :    3.50000    1.50000    1.00000
  | Threshold for basis-dependent cutoff potential is   0.100000E-03
  | Found data for basic radial integration grid :    48 points, outermost radius =    5.000 A
  | Found multiplier for basic radial grid :   1
  | Found angular grid specification: user-specified.
  | Specified grid contains     5 separate shells.
  | Check grid settings after all constraints further below.
  | Found free-atom valence shell :  4 s   2.000
  | Found free-atom valence shell :  3 p   6.000
  | Found free-atom valence shell :  3 d   2.000
  | Found free-ion valence shell :  4 s   1.000
  | Found free-ion valence shell :  3 p   6.000
  | Found free-ion valence shell :  3 d   1.000
  | Found hydrogenic basis function :  4 f   8.000
  | Found hydrogenic basis function :  3 d   2.700
  | Found ionic basis function :  4 p , default cutoff radius.
  | Found ionic basis function :  4 s , default cutoff radius.
 | Encountered keyword species, ending the description of species Ti                  .
  Species Ti                  : Missing cutoff potential type.
  Defaulting to exp(1/x)/(1-x)^2 type cutoff potential.
  Species Ti: No 'logarithmic' tag. Using default grid for free atom:
  | Default logarithmic grid data [bohr] : 0.1000E-03 0.1000E+03 0.1012E+01
  | Will include ionic basis functions of  2.0-fold positive Ti                   ion.
  Species Ti: On-site basis accuracy parameter (for Gram-Schmidt orthonormalisation) not specified.
  Using default value basis_acc =  0.1000000E-03.
  Species Ti                  : Using default innermost maximum threshold i_radial=  2 for radial functions.
  Species Ti                  : Default cutoff onset for free atom density etc. : 0.35000000E+01 AA.
  Species Ti                  : Basic radial grid will be enhanced according to radial_multiplier =   1, to contain    48 grid points.
 
  Reading configuration options for species O                   .
  | Found nuclear charge :   8.0000
  | Found atomic mass :    15.9994000000000      amu
  | Found l_max for Hartree potential  :   4
  | Found cutoff potl. onset [A], width [A], scale factor :    3.50000    1.50000    1.00000
  | Threshold for basis-dependent cutoff potential is   0.100000E-03
  | Found data for basic radial integration grid :    36 points, outermost radius =    5.000 A
  | Found multiplier for basic radial grid :   1
  | Found angular grid specification: user-specified.
  | Specified grid contains     5 separate shells.
  | Check grid settings after all constraints further below.
  | Found free-atom valence shell :  2 s   2.000
  | Found free-atom valence shell :  2 p   4.000
  | Found free-ion valence shell :  2 s   1.000
  | Found free-ion valence shell :  2 p   3.000
  | Found hydrogenic basis function :  2 p   1.800
  | Found hydrogenic basis function :  3 d   7.600
  | Found hydrogenic basis function :  3 s   6.400
 | Encountered keyword species, ending the description of species O                   .
  Species O                   : Missing cutoff potential type.
  Defaulting to exp(1/x)/(1-x)^2 type cutoff potential.
  Species O : No 'logarithmic' tag. Using default grid for free atom:
  | Default logarithmic grid data [bohr] : 0.1000E-03 0.1000E+03 0.1012E+01
  Species O : On-site basis accuracy parameter (for Gram-Schmidt orthonormalisation) not specified.
  Using default value basis_acc =  0.1000000E-03.
  Species O                   : Using default innermost maximum threshold i_radial=  2 for radial functions.
  Species O                   : Default cutoff onset for free atom density etc. : 0.35000000E+01 AA.
  Species O                   : Basic radial grid will be enhanced according to radial_multiplier =   1, to contain    36 grid points.
 
  Reading configuration options for species O1                  .
  | Found nuclear charge :   8.0000
  | Found atomic mass :    15.9994000000000      amu
  | Found l_max for Hartree potential  :   6
  | Found cutoff potl. onset [A], width [A], scale factor :    4.00000    2.00000    1.00000
  | Threshold for basis-dependent cutoff potential is   0.100000E-03
  | Found data for basic radial integration grid :    36 points, outermost radius =    7.000 A
  | Found multiplier for basic radial grid :   2
  | Found angular grid specification: user-specified.
  | Specified grid contains     6 separate shells.
  | Check grid settings after all constraints further below.
  | Found free-atom valence shell :  2 s   2.000
  | Found free-atom valence shell :  2 p   4.000
  | Found free-ion valence shell :  2 s   1.000
  | Found free-ion valence shell :  2 p   3.000
  | Found hydrogenic basis function :  2 p   1.800
  | Found hydrogenic basis function :  3 d   7.600
  | Found hydrogenic basis function :  3 s   6.400
  | Found hydrogenic basis function :  4 f  11.600
  | Found hydrogenic basis function :  3 p   6.200
  | Found hydrogenic basis function :  3 d   5.600
  | Found hydrogenic basis function :  5 g  17.600
  | Found hydrogenic basis function :  1 s   0.750
  | Found ionic basis function :  2 p , default cutoff radius.
  | Found hydrogenic basis function :  4 f  10.800
  | Found hydrogenic basis function :  4 d   4.700
  | Found hydrogenic basis function :  2 s   6.800
  | Found hydrogenic basis function :  1 s  12.000
  | Found hydrogenic basis function :  1 s  10.000
  | Found hydrogenic basis function :  1 s   6.000
  | Found hydrogenic basis function :  2 s  10.000
  | Found hydrogenic basis function :  2 p   8.000
  | Found hydrogenic basis function :  2 p   6.000
  | Found hydrogenic basis function :  3 d   8.000
  Species O1                  : Missing cutoff potential type.
  Defaulting to exp(1/x)/(1-x)^2 type cutoff potential.
  Species O1: No 'logarithmic' tag. Using default grid for free atom:
  | Default logarithmic grid data [bohr] : 0.1000E-03 0.1000E+03 0.1012E+01
  | Will include ionic basis functions of  2.0-fold positive O1                   ion.
  Species O1: On-site basis accuracy parameter (for Gram-Schmidt orthonormalisation) not specified.
  Using default value basis_acc =  0.1000000E-03.
  Species O1                  : Using default innermost maximum threshold i_radial=  2 for radial functions.
  Species O1                  : Default cutoff onset for free atom density etc. : 0.40000000E+01 AA.
  Species O1                  : Basic radial grid will be enhanced according to radial_multiplier =   2, to contain    73 grid points.
 
  Finished reading input file 'control.in'.
 
------------------------------------------------------------


------------------------------------------------------------
          Reading geometry description geometry.in.
------------------------------------------------------------
  | The smallest distance between any two atoms is         1.95947539 AA.
  | The first atom of this pair is atom number                    473 .
  | The second atom of this pair is atom number                   518 .
  | Wigner-Seitz cell of the first atom image           0     0     0 .
  | (The Wigner-Seitz cell of the second atom is 0 0 0  by definition.)

  Symmetry information by spglib:
  | Precision set to  0.1E-04
  | Number of Operations  : 2
  | Space group           : 6
  | International         : Pm      2 9
  | Schoenflies           : Cs^1
  Input structure read successfully.
  The structure contains      752 atoms,  and a total of       9600.000 electrons.

  Input geometry:
  | Unit cell:
  |       26.26450600        0.00000000        0.00000000
  |        0.00000000       11.89153100        0.00000000
  |        0.00000000        0.00000000       84.98911500
  | Atomic structure:
  |       Atom                x [A]            y [A]            z [A]
  |    1: Species Ti           26.26450600        0.00000000       30.00000000
  |    2: Species Ti            3.28306300        1.48644100       30.00000000
  |    3: Species O1            1.27672900        1.48644100       30.00002900
  |    4: Species O             3.28308600        0.00000000       31.27676700
  |    5: Species O             6.56608600        0.00000000       32.00646800
  |    6: Species O             2.00631700        1.48644100       33.28320600
  |    7: Species Ti            3.28304600        0.00000000       33.28323500
  |    8: Species Ti            6.56610900        1.48644100       33.28323500
  |    9: Species O             4.55977500        1.48644100       33.28326500
  |   10: Species O             0.00000500        0.00000000       34.56000200
  |   11: Species O             3.28300600        0.00000000       35.28970400
  |   12: Species O             5.28936200        1.48644100       36.56644100
  |   13: Species Ti            6.56609100        0.00000000       36.56647100
  |   14: Species Ti            3.28302800        1.48644100       36.56647100
  |   15: Species O             1.27669400        1.48644100       36.56650000
  |   16: Species O             3.28305100        0.00000000       37.84323700
  |   17: Species O             6.56605100        0.00000000       38.57293900
  |   18: Species O             2.00628100        1.48644100       39.84967600
  |   19: Species Ti            3.28301000        0.00000000       39.84970600
  |   20: Species Ti            6.56607400        1.48644100       39.84970600
  |   21: Species O             4.55974000        1.48644100       39.84973500
  |   22: Species O             6.56609600        0.00000000       41.12647300
  |   23: Species O             3.28297000        0.00000000       41.85617400
  |   24: Species O             5.28932700        1.48644100       43.13291200
  |   25: Species Ti            6.56605600        0.00000000       43.13294100
  |   26: Species Ti            3.28299300        1.48644100       43.13294100
  |   27: Species O             1.27665900        1.48644100       43.13297000
  |   28: Species O             3.28301500        0.00000000       44.40970800
  |   29: Species O             6.56601600        0.00000000       45.13940900
  |   30: Species O             2.00624600        1.48644100       46.41614700
  |   31: Species Ti            3.28297500        0.00000000       46.41617600
  |   32: Species Ti            6.56603900        1.48644100       46.41617600
  |   33: Species O             4.55970400        1.48644100       46.41620600
  |   34: Species O             6.56606100        0.00000000       47.69294300
  |   35: Species O             3.28293500        0.00000000       48.42264500
  |   36: Species O             5.28929200        1.48644100       49.69938200
  |   37: Species Ti            6.56602100        0.00000000       49.69941200
  |   38: Species Ti            3.28295800        1.48644100       49.69941200
  |   39: Species O             1.27662300        1.48644100       49.69944100
  |   40: Species O             3.28298000        0.00000000       50.97617800
  |   41: Species O             6.56598100        0.00000000       51.70588000
  |   42: Species O             2.00621100        1.48644100       52.98261700
  |   43: Species Ti            3.28294000        0.00000000       52.98264700
  |   44: Species Ti            6.56600300        1.48644100       52.98264700
  |   45: Species O             4.55966900        1.48644100       52.98267600
  |   46: Species O             6.56602600        0.00000000       54.25941400
  |   47: Species O             3.28290000        0.00000000       54.98911500
  |   48: Species Ti           26.26450600        2.97288300       30.00000000
  |   49: Species Ti            3.28306300        4.45932400       30.00000000
  |   50: Species O             1.27672900        4.45932400       30.00002900
  |   51: Species O             3.28308600        2.97288300       31.27676700
  |   52: Species O             6.56608600        2.97288300       32.00646800
  |   53: Species O             2.00631700        4.45932400       33.28320600
  |   54: Species Ti            3.28304600        2.97288300       33.28323500
  |   55: Species Ti            6.56610900        4.45932400       33.28323500
  |   56: Species O             4.55977500        4.45932400       33.28326500
  |   57: Species O             0.00000500        2.97288300       34.56000200
  |   58: Species O             3.28300600        2.97288300       35.28970400
  |   59: Species O             5.28936200        4.45932400       36.56644100
  |   60: Species Ti            6.56609100        2.97288300       36.56647100
  |   61: Species Ti            3.28302800        4.45932400       36.56647100
  |   62: Species O             1.27669400        4.45932400       36.56650000
  |   63: Species O             3.28305100        2.97288300       37.84323700
  |   64: Species O             6.56605100        2.97288300       38.57293900
  |   65: Species O             2.00628100        4.45932400       39.84967600
  |   66: Species Ti            3.28301000        2.97288300       39.84970600
  |   67: Species Ti            6.56607400        4.45932400       39.84970600
  |   68: Species O             4.55974000        4.45932400       39.84973500
  |   69: Species O             6.56609600        2.97288300       41.12647300
  |   70: Species O             3.28297000        2.97288300       41.85617400
  |   71: Species O             5.28932700        4.45932400       43.13291200
  |   72: Species Ti            6.56605600        2.97288300       43.13294100
  |   73: Species Ti            3.28299300        4.45932400       43.13294100
  |   74: Species O             1.27665900        4.45932400       43.13297000
  |   75: Species O             3.28301500        2.97288300       44.40970800
  |   76: Species O             6.56601600        2.97288300       45.13940900
  |   77: Species O             2.00624600        4.45932400       46.41614700
  |   78: Species Ti            3.28297500        2.97288300       46.41617600
  |   79: Species Ti            6.56603900        4.45932400       46.41617600
  |   80: Species O             4.55970400        4.45932400       46.41620600
  |   81: Species O             6.56606100        2.97288300       47.69294300
  |   82: Species O             3.28293500        2.97288300       48.42264500
  |   83: Species O             5.28929200        4.45932400       49.69938200
  |   84: Species Ti            6.56602100        2.97288300       49.69941200
  |   85: Species Ti            3.28295800        4.45932400       49.69941200
  |   86: Species O             1.27662300        4.45932400       49.69944100
  |   87: Species O             3.28298000        2.97288300       50.97617800
  |   88: Species O             6.56598100        2.97288300       51.70588000
  |   89: Species O             2.00621100        4.45932400       52.98261700
  |   90: Species Ti            3.28294000        2.97288300       52.98264700
  |   91: Species Ti            6.56600300        4.45932400       52.98264700
  |   92: Species O             4.55966900        4.45932400       52.98267600
  |   93: Species O             6.56602600        2.97288300       54.25941400
  |   94: Species O             3.28290000        2.97288300       54.98911500
  |   95: Species Ti           26.26450600        5.94576500       30.00000000
  |   96: Species Ti            3.28306300        7.43220700       30.00000000
  |   97: Species O             1.27672900        7.43220700       30.00002900
  |   98: Species O             3.28308600        5.94576500       31.27676700
  |   99: Species O             6.56608600        5.94576500       32.00646800
  |  100: Species O             2.00631700        7.43220700       33.28320600
  |  101: Species Ti            3.28304600        5.94576500       33.28323500
  |  102: Species Ti            6.56610900        7.43220700       33.28323500
  |  103: Species O             4.55977500        7.43220700       33.28326500
  |  104: Species O             0.00000500        5.94576500       34.56000200
  |  105: Species O             3.28300600        5.94576500       35.28970400
  |  106: Species O             5.28936200        7.43220700       36.56644100
  |  107: Species Ti            6.56609100        5.94576500       36.56647100
  |  108: Species Ti            3.28302800        7.43220700       36.56647100
  |  109: Species O             1.27669400        7.43220700       36.56650000
  |  110: Species O             3.28305100        5.94576500       37.84323700
  |  111: Species O             6.56605100        5.94576500       38.57293900
  |  112: Species O             2.00628100        7.43220700       39.84967600
  |  113: Species Ti            3.28301000        5.94576500       39.84970600
  |  114: Species Ti            6.56607400        7.43220700       39.84970600
  |  115: Species O             4.55974000        7.43220700       39.84973500
  |  116: Species O             6.56609600        5.94576500       41.12647300
  |  117: Species O             3.28297000        5.94576500       41.85617400
  |  118: Species O             5.28932700        7.43220700       43.13291200
  |  119: Species Ti            6.56605600        5.94576500       43.13294100
  |  120: Species Ti            3.28299300        7.43220700       43.13294100
  |  121: Species O             1.27665900        7.43220700       43.13297000
  |  122: Species O             3.28301500        5.94576500       44.40970800
  |  123: Species O             6.56601600        5.94576500       45.13940900
  |  124: Species O             2.00624600        7.43220700       46.41614700
  |  125: Species Ti            3.28297500        5.94576500       46.41617600
  |  126: Species Ti            6.56603900        7.43220700       46.41617600
  |  127: Species O             4.55970400        7.43220700       46.41620600
  |  128: Species O             6.56606100        5.94576500       47.69294300
  |  129: Species O             3.28293500        5.94576500       48.42264500
  |  130: Species O             5.28929200        7.43220700       49.69938200
  |  131: Species Ti            6.56602100        5.94576500       49.69941200
  |  132: Species Ti            3.28295800        7.43220700       49.69941200
  |  133: Species O             1.27662300        7.43220700       49.69944100
  |  134: Species O             3.28298000        5.94576500       50.97617800
  |  135: Species O             6.56598100        5.94576500       51.70588000
  |  136: Species O             2.00621100        7.43220700       52.98261700
  |  137: Species Ti            3.28294000        5.94576500       52.98264700
  |  138: Species Ti            6.56600300        7.43220700       52.98264700
  |  139: Species O             4.55966900        7.43220700       52.98267600
  |  140: Species O             6.56602600        5.94576500       54.25941400
  |  141: Species O             3.28290000        5.94576500       54.98911500
  |  142: Species Ti           26.26450600        8.91864800       30.00000000
  |  143: Species Ti            3.28306300       10.40508900       30.00000000
  |  144: Species O             1.27672900       10.40508900       30.00002900
  |  145: Species O             3.28308600        8.91864800       31.27676700
  |  146: Species O             6.56608600        8.91864800       32.00646800
  |  147: Species O             2.00631700       10.40508900       33.28320600
  |  148: Species Ti            3.28304600        8.91864800       33.28323500
  |  149: Species Ti            6.56610900       10.40508900       33.28323500
  |  150: Species O             4.55977500       10.40508900       33.28326500
  |  151: Species O             0.00000500        8.91864800       34.56000200
  |  152: Species O             3.28300600        8.91864800       35.28970400
  |  153: Species O             5.28936200       10.40508900       36.56644100
  |  154: Species Ti            6.56609100        8.91864800       36.56647100
  |  155: Species Ti            3.28302800       10.40508900       36.56647100
  |  156: Species O             1.27669400       10.40508900       36.56650000
  |  157: Species O             3.28305100        8.91864800       37.84323700
  |  158: Species O             6.56605100        8.91864800       38.57293900
  |  159: Species O             2.00628100       10.40508900       39.84967600
  |  160: Species Ti            3.28301000        8.91864800       39.84970600
  |  161: Species Ti            6.56607400       10.40508900       39.84970600
  |  162: Species O             4.55974000       10.40508900       39.84973500
  |  163: Species O             6.56609600        8.91864800       41.12647300
  |  164: Species O             3.28297000        8.91864800       41.85617400
  |  165: Species O             5.28932700       10.40508900       43.13291200
  |  166: Species Ti            6.56605600        8.91864800       43.13294100
  |  167: Species Ti            3.28299300       10.40508900       43.13294100
  |  168: Species O             1.27665900       10.40508900       43.13297000
  |  169: Species O             3.28301500        8.91864800       44.40970800
  |  170: Species O             6.56601600        8.91864800       45.13940900
  |  171: Species O             2.00624600       10.40508900       46.41614700
  |  172: Species Ti            3.28297500        8.91864800       46.41617600
  |  173: Species Ti            6.56603900       10.40508900       46.41617600
  |  174: Species O             4.55970400       10.40508900       46.41620600
  |  175: Species O             6.56606100        8.91864800       47.69294300
  |  176: Species O             3.28293500        8.91864800       48.42264500
  |  177: Species O             5.28929200       10.40508900       49.69938200
  |  178: Species Ti            6.56602100        8.91864800       49.69941200
  |  179: Species Ti            3.28295800       10.40508900       49.69941200
  |  180: Species O             1.27662300       10.40508900       49.69944100
  |  181: Species O             3.28298000        8.91864800       50.97617800
  |  182: Species O             6.56598100        8.91864800       51.70588000
  |  183: Species O             2.00621100       10.40508900       52.98261700
  |  184: Species Ti            3.28294000        8.91864800       52.98264700
  |  185: Species Ti            6.56600300       10.40508900       52.98264700
  |  186: Species O             4.55966900       10.40508900       52.98267600
  |  187: Species O             6.56602600        8.91864800       54.25941400
  |  188: Species O             3.28290000        8.91864800       54.98911500
  |  189: Species Ti            6.56612600        0.00000000       30.00000000
  |  190: Species Ti            9.84919000        1.48644100       30.00000000
  |  191: Species O             7.84285600        1.48644100       30.00002900
  |  192: Species O             9.84921200        0.00000000       31.27676700
  |  193: Species O            13.13221300        0.00000000       32.00646800
  |  194: Species O             8.57244300        1.48644100       33.28320600
  |  195: Species Ti            9.84917200        0.00000000       33.28323500
  |  196: Species Ti           13.13223500        1.48644100       33.28323500
  |  197: Species O            11.12590100        1.48644100       33.28326500
  |  198: Species O             6.56613100        0.00000000       34.56000200
  |  199: Species O             9.84913200        0.00000000       35.28970400
  |  200: Species O            11.85548900        1.48644100       36.56644100
  |  201: Species Ti           13.13221800        0.00000000       36.56647100
  |  202: Species Ti            9.84915500        1.48644100       36.56647100
  |  203: Species O             7.84282000        1.48644100       36.56650000
  |  204: Species O             9.84917700        0.00000000       37.84323700
  |  205: Species O            13.13217800        0.00000000       38.57293900
  |  206: Species O             8.57240800        1.48644100       39.84967600
  |  207: Species Ti            9.84913700        0.00000000       39.84970600
  |  208: Species Ti           13.13220000        1.48644100       39.84970600
  |  209: Species O            11.12586600        1.48644100       39.84973500
  |  210: Species O            13.13222300        0.00000000       41.12647300
  |  211: Species O             9.84909700        0.00000000       41.85617400
  |  212: Species O            11.85545400        1.48644100       43.13291200
  |  213: Species Ti           13.13218300        0.00000000       43.13294100
  |  214: Species Ti            9.84911900        1.48644100       43.13294100
  |  215: Species O             7.84278500        1.48644100       43.13297000
  |  216: Species O             9.84914200        0.00000000       44.40970800
  |  217: Species O            13.13214300        0.00000000       45.13940900
  |  218: Species O             8.57237300        1.48644100       46.41614700
  |  219: Species Ti            9.84910200        0.00000000       46.41617600
  |  220: Species Ti           13.13216500        1.48644100       46.41617600
  |  221: Species O            11.12583100        1.48644100       46.41620600
  |  222: Species O            13.13218800        0.00000000       47.69294300
  |  223: Species O             9.84906200        0.00000000       48.42264500
  |  224: Species O            11.85541800        1.48644100       49.69938200
  |  225: Species Ti           13.13214700        0.00000000       49.69941200
  |  226: Species Ti            9.84908400        1.48644100       49.69941200
  |  227: Species O             7.84275000        1.48644100       49.69944100
  |  228: Species O             9.84910700        0.00000000       50.97617800
  |  229: Species O            13.13210700        0.00000000       51.70588000
  |  230: Species O             8.57233800        1.48644100       52.98261700
  |  231: Species Ti            9.84906700        0.00000000       52.98264700
  |  232: Species Ti           13.13213000        1.48644100       52.98264700
  |  233: Species O            11.12579600        1.48644100       52.98267600
  |  234: Species O            13.13215200        0.00000000       54.25941400
  |  235: Species O             9.84902600        0.00000000       54.98911500
  |  236: Species Ti            6.56612600        2.97288300       30.00000000
  |  237: Species Ti            9.84919000        4.45932400       30.00000000
  |  238: Species O             7.84285600        4.45932400       30.00002900
  |  239: Species O             9.84921200        2.97288300       31.27676700
  |  240: Species O            13.13221300        2.97288300       32.00646800
  |  241: Species O             8.57244300        4.45932400       33.28320600
  |  242: Species Ti            9.84917200        2.97288300       33.28323500
  |  243: Species Ti           13.13223500        4.45932400       33.28323500
  |  244: Species O            11.12590100        4.45932400       33.28326500
  |  245: Species O             6.56613100        2.97288300       34.56000200
  |  246: Species O             9.84913200        2.97288300       35.28970400
  |  247: Species O            11.85548900        4.45932400       36.56644100
  |  248: Species Ti           13.13221800        2.97288300       36.56647100
  |  249: Species Ti            9.84915500        4.45932400       36.56647100
  |  250: Species O             7.84282000        4.45932400       36.56650000
  |  251: Species O             9.84917700        2.97288300       37.84323700
  |  252: Species O            13.13217800        2.97288300       38.57293900
  |  253: Species O             8.57240800        4.45932400       39.84967600
  |  254: Species Ti            9.84913700        2.97288300       39.84970600
  |  255: Species Ti           13.13220000        4.45932400       39.84970600
  |  256: Species O            11.12586600        4.45932400       39.84973500
  |  257: Species O            13.13222300        2.97288300       41.12647300
  |  258: Species O             9.84909700        2.97288300       41.85617400
  |  259: Species O            11.85545400        4.45932400       43.13291200
  |  260: Species Ti           13.13218300        2.97288300       43.13294100
  |  261: Species Ti            9.84911900        4.45932400       43.13294100
  |  262: Species O             7.84278500        4.45932400       43.13297000
  |  263: Species O             9.84914200        2.97288300       44.40970800
  |  264: Species O            13.13214300        2.97288300       45.13940900
  |  265: Species O             8.57237300        4.45932400       46.41614700
  |  266: Species Ti            9.84910200        2.97288300       46.41617600
  |  267: Species Ti           13.13216500        4.45932400       46.41617600
  |  268: Species O            11.12583100        4.45932400       46.41620600
  |  269: Species O            13.13218800        2.97288300       47.69294300
  |  270: Species O             9.84906200        2.97288300       48.42264500
  |  271: Species O            11.85541800        4.45932400       49.69938200
  |  272: Species Ti           13.13214700        2.97288300       49.69941200
  |  273: Species Ti            9.84908400        4.45932400       49.69941200
  |  274: Species O             7.84275000        4.45932400       49.69944100
  |  275: Species O             9.84910700        2.97288300       50.97617800
  |  276: Species O            13.13210700        2.97288300       51.70588000
  |  277: Species O             8.57233800        4.45932400       52.98261700
  |  278: Species Ti            9.84906700        2.97288300       52.98264700
  |  279: Species Ti           13.13213000        4.45932400       52.98264700
  |  280: Species O            11.12579600        4.45932400       52.98267600
  |  281: Species O            13.13215200        2.97288300       54.25941400
  |  282: Species O             9.84902600        2.97288300       54.98911500
  |  283: Species Ti            6.56612600        5.94576500       30.00000000
  |  284: Species Ti            9.84919000        7.43220700       30.00000000
  |  285: Species O             7.84285600        7.43220700       30.00002900
  |  286: Species O             9.84921200        5.94576500       31.27676700
  |  287: Species O            13.13221300        5.94576500       32.00646800
  |  288: Species O             8.57244300        7.43220700       33.28320600
  |  289: Species Ti            9.84917200        5.94576500       33.28323500
  |  290: Species Ti           13.13223500        7.43220700       33.28323500
  |  291: Species O            11.12590100        7.43220700       33.28326500
  |  292: Species O             6.56613100        5.94576500       34.56000200
  |  293: Species O             9.84913200        5.94576500       35.28970400
  |  294: Species O            11.85548900        7.43220700       36.56644100
  |  295: Species Ti           13.13221800        5.94576500       36.56647100
  |  296: Species Ti            9.84915500        7.43220700       36.56647100
  |  297: Species O             7.84282000        7.43220700       36.56650000
  |  298: Species O             9.84917700        5.94576500       37.84323700
  |  299: Species O            13.13217800        5.94576500       38.57293900
  |  300: Species O             8.57240800        7.43220700       39.84967600
  |  301: Species Ti            9.84913700        5.94576500       39.84970600
  |  302: Species Ti           13.13220000        7.43220700       39.84970600
  |  303: Species O            11.12586600        7.43220700       39.84973500
  |  304: Species O            13.13222300        5.94576500       41.12647300
  |  305: Species O             9.84909700        5.94576500       41.85617400
  |  306: Species O            11.85545400        7.43220700       43.13291200
  |  307: Species Ti           13.13218300        5.94576500       43.13294100
  |  308: Species Ti            9.84911900        7.43220700       43.13294100
  |  309: Species O             7.84278500        7.43220700       43.13297000
  |  310: Species O             9.84914200        5.94576500       44.40970800
  |  311: Species O            13.13214300        5.94576500       45.13940900
  |  312: Species O             8.57237300        7.43220700       46.41614700
  |  313: Species Ti            9.84910200        5.94576500       46.41617600
  |  314: Species Ti           13.13216500        7.43220700       46.41617600
  |  315: Species O            11.12583100        7.43220700       46.41620600
  |  316: Species O            13.13218800        5.94576500       47.69294300
  |  317: Species O             9.84906200        5.94576500       48.42264500
  |  318: Species O            11.85541800        7.43220700       49.69938200
  |  319: Species Ti           13.13214700        5.94576500       49.69941200
  |  320: Species Ti            9.84908400        7.43220700       49.69941200
  |  321: Species O             7.84275000        7.43220700       49.69944100
  |  322: Species O             9.84910700        5.94576500       50.97617800
  |  323: Species O            13.13210700        5.94576500       51.70588000
  |  324: Species O             8.57233800        7.43220700       52.98261700
  |  325: Species Ti            9.84906700        5.94576500       52.98264700
  |  326: Species Ti           13.13213000        7.43220700       52.98264700
[...]
  However, this system has fractional occupation numbers. Since we use a finite k-point grid,
  this material is metallic within the approximate finite broadening function (occupation_type)
  applied to determine the occupation numbers.

  Total energy components:
  | Sum of eigenvalues            :     -151856.45874850 Ha    -4132224.48781371 eV
  | XC energy correction          :      -15042.18738238 Ha     -409318.74458300 eV
  | XC potential correction       :       19449.24921385 Ha      529240.99859441 eV
  | Free-atom electrostatic energy:     -108922.91536170 Ha    -2963943.33076806 eV
  | Hartree energy correction     :        -194.00277447 Ha       -5279.08409026 eV
  | Entropy correction            :          -0.00544151 Ha          -0.14807097 eV
  | ---------------------------
  | Total energy                  :     -256566.31505319 Ha    -6981524.64866062 eV
  | Total energy, T -> 0          :     -256566.32049470 Ha    -6981524.79673159 eV  <-- do not rely on this value for anything but (periodic) metals
  | Electronic free energy        :     -256566.32593621 Ha    -6981524.94480256 eV

  Derived energy quantities:
  | Kinetic energy                :      258402.73081772 Ha     7031496.06413109 eV
  | Electrostatic energy          :     -499926.85848854 Ha   -13603701.96820871 eV
  | Energy correction for multipole
  | error in Hartree potential    :           2.30390246 Ha          62.69237581 eV
  | Sum of eigenvalues per atom                           :       -5494.97937209 eV
  | Total energy (T->0) per atom                          :       -9283.94254885 eV  <-- do not rely on this value for anything but (periodic) metals
  | Electronic free energy per atom                       :       -9283.94274575 eV
  Evaluating new KS density using the density matrix
  Evaluating density matrix
  Evaluating density matrix
  Time summed over all CPUs for getting density from density matrix: real work     1617.208 s, elapsed     1700.627 s
  Integration grid: deviation in total charge (<rho> - N_e) =   4.911271E-11
  | <rho_up-rho_dn> = N_up-N_dn =      0.0000; <|rho_up-rho_dn|> =      0.0000

  Self-consistency convergence accuracy:
  | Change of charge/spin density :  0.6546E+00  0.7227E-11
  | Change of unmixed KS charge/spin density :  0.1835E+01  0.5279E-11
  | Change of sum of eigenvalues  :  0.2845E+03 eV
  | Change of total energy        :  0.9019E+00 eV


------------------------------------------------------------
  End self-consistency iteration #    35       :  max(cpu_time)    wall_clock(cpu1)
  | Time for this iteration                     :     1866.712 s        1866.777 s
  | Charge density update                       :      116.301 s         116.306 s
  | Density mixing & preconditioning            :      109.334 s         109.339 s
  | Hartree multipole update                    :        0.067 s           0.067 s
  | Hartree multipole summation                 :        4.056 s           4.056 s
  | Integration                                 :       14.024 s          14.025 s
  | Solution of K.-S. eqns.                     :     1622.914 s        1622.970 s
  | Total energy evaluation                     :        0.001 s           0.000 s

  Partial memory accounting:
  | Current value for overall tracked memory usage:
  |   Minimum:      868.559 MB (on task 15)
  |   Maximum:     2622.557 MB (on task  2)
  |   Average:      923.406 MB
  | Peak value for overall tracked memory usage:
  |   Minimum:     2582.893 MB (on task 19 after allocating kdm_complex)
  |   Maximum:    10281.827 MB (on task  2 after allocating eval_tmp)
  |   Average:     2823.891 MB
  | Largest tracked array allocation so far:
  |   Minimum:     1701.997 MB (KS_eigenvector on task  0)
  |   Maximum:     1753.959 MB (KS_eigenvector on task  1)
  |   Average:     1703.620 MB
  Note:  These values currently only include a subset of arrays which are explicitly tracked.
  The "true" memory usage will be greater.
------------------------------------------------------------

------------------------------------------------------------
          Begin self-consistency iteration #   36

  Date     :  20241008, Time     :  071652.534
------------------------------------------------------------
  Pulay mixing of updated and previous charge densities.
  Available memory per node after mixing [GB]:    922.56
  Renormalizing the density to the exact electron count on the 3D integration grid.
  | Formal number of electrons (from input files) :    9600.0000000000
  | Integrated number of electrons on 3D grid     :    9599.9565773627
  | Charge integration error                      :      -0.0434226373
  | Normalization factor for density and gradient :       1.0000045232

  Evaluating partitioned Hartree potential by multipole expansion.
  | Original multipole sum: apparent total charge =  -0.204436E-10
  | Sum of charges compensated after spline to logarithmic grids =   0.175700E-02
  | Analytical far-field extrapolation by fixed multipoles:
  | Hartree multipole sum: apparent total charge =  -0.204387E-10
  Summing up the Hartree potential.
  Time summed over all CPUs for potential: real work        3.617 s, elapsed        3.806 s
  | RMS charge density error from multipole expansion :   0.183444E+00
  | Average real-space part of the electrostatic potential :      0.18627510 eV

  Integrating Hamiltonian matrix: batch-based integration.
  Time summed over all CPUs for integration: real work      760.293 s, elapsed      827.595 s

  Updating Kohn-Sham eigenvalues and eigenvectors using ELSI and the (modified) LAPACK eigensolver.

  Obtaining occupation numbers and electronic chemical potential using ELSI.
  | Note that, for insulating systems, the printed 'chemical potential' value is not uniquely defined.
  | It can be anywhere in the energy gap, as long as it correctly separates occupied and unoccupied states.
  | In systems with a gap, the physically relevant chemical potential is the VBM or HOMO.

  | Chemical potential (Fermi level):    -6.72687714 eV
  Current spin moment of the entire structure :
  | N = N_up - N_down (sum over all k points):         0.00000
  | S (sum over all k points)                :         0.00000

  What follows are estimated values for band gap, HOMO, LUMO, etc.
  | They are estimated on a discrete k-point grid and not necessarily exact.
  | For converged numbers, create a DOS and/or band structure plot on a denser k-grid.

  Highest occupied state (VBM) at     -6.72833694 eV (relative to internal zero)
  | Occupation number:      0.51646746
  | K-point:       1 at    0.000000    0.000000    0.000000 (in units of recip. lattice)
  | Spin channel:        2

  Lowest unoccupied state (CBM) at    -6.72017221 eV (relative to internal zero)
  | Occupation number:      0.42479405
  | K-point:       1 at    0.000000    0.000000    0.000000 (in units of recip. lattice)
  | Spin channel:        1

  ESTIMATED overall HOMO-LUMO gap:      0.00816473 eV between HOMO at k-point 1 and LUMO at k-point 1
  | This appears to be a direct band gap.
  However, this system has fractional occupation numbers. Since we use a finite k-point grid,
  this material is metallic within the approximate finite broadening function (occupation_type)
  applied to determine the occupation numbers.

  Total energy components:
  | Sum of eigenvalues            :     -151855.81497013 Ha    -4132206.96971297 eV
  | XC energy correction          :      -15042.13794421 Ha     -409317.39930205 eV
  | XC potential correction       :       19449.18844752 Ha      529239.34505829 eV
  | Free-atom electrostatic energy:     -108922.91536170 Ha    -2963943.33076806 eV
  | Hartree energy correction     :        -194.61659438 Ha       -5295.78697971 eV
  | Entropy correction            :          -0.00546761 Ha          -0.14878120 eV
  | ---------------------------
  | Total energy                  :     -256566.29642290 Ha    -6981524.14170450 eV
  | Total energy, T -> 0          :     -256566.30189051 Ha    -6981524.29048571 eV  <-- do not rely on this value for anything but (periodic) metals
  | Electronic free energy        :     -256566.30735812 Ha    -6981524.43926691 eV

  Derived energy quantities:
  | Kinetic energy                :      258401.28291370 Ha     7031456.66465807 eV
  | Electrostatic energy          :     -499925.44139239 Ha   -13603663.40706052 eV
  | Energy correction for multipole
  | error in Hartree potential    :           2.31540017 Ha          63.00524431 eV
  | Sum of eigenvalues per atom                           :       -5494.95607675 eV
  | Total energy (T->0) per atom                          :       -9283.94187565 eV  <-- do not rely on this value for anything but (periodic) metals
  | Electronic free energy per atom                       :       -9283.94207349 eV
  Evaluating new KS density using the density matrix
  Evaluating density matrix
  Evaluating density matrix
  Time summed over all CPUs for getting density from density matrix: real work     1619.599 s, elapsed     1713.528 s
  Integration grid: deviation in total charge (<rho> - N_e) =   5.820766E-11
  | <rho_up-rho_dn> = N_up-N_dn =      0.0000; <|rho_up-rho_dn|> =      0.0000

  Self-consistency convergence accuracy:
  | Change of charge/spin density :  0.4441E+00  0.8209E-11
  | Change of unmixed KS charge/spin density :  0.5783E+00  0.3737E-11
  | Change of sum of eigenvalues  :  0.1752E+02 eV
  | Change of total energy        :  0.5070E+00 eV


------------------------------------------------------------
  End self-consistency iteration #    36       :  max(cpu_time)    wall_clock(cpu1)
  | Time for this iteration                     :     1847.905 s        1847.968 s
  | Charge density update                       :      116.967 s         116.971 s
  | Density mixing & preconditioning            :      108.761 s         108.765 s
  | Hartree multipole update                    :        0.054 s           0.054 s
  | Hartree multipole summation                 :        4.061 s           4.062 s
  | Integration                                 :       13.878 s          13.878 s
  | Solution of K.-S. eqns.                     :     1604.168 s        1604.224 s
  | Total energy evaluation                     :        0.001 s           0.001 s

  Partial memory accounting:
  | Current value for overall tracked memory usage:
  |   Minimum:      868.559 MB (on task 15)
  |   Maximum:     2622.557 MB (on task  2)
  |   Average:      923.406 MB
  | Peak value for overall tracked memory usage:
  |   Minimum:     2582.893 MB (on task 19 after allocating kdm_complex)
  |   Maximum:    10281.827 MB (on task  2 after allocating eval_tmp)
  |   Average:     2823.891 MB
  | Largest tracked array allocation so far:
  |   Minimum:     1701.997 MB (KS_eigenvector on task  0)
  |   Maximum:     1753.959 MB (KS_eigenvector on task  1)
  |   Average:     1703.620 MB
  Note:  These values currently only include a subset of arrays which are explicitly tracked.
  The "true" memory usage will be greater.
------------------------------------------------------------

------------------------------------------------------------
          Begin self-consistency iteration #   37

  Date     :  20241008, Time     :  074740.503
------------------------------------------------------------
  Pulay mixing of updated and previous charge densities.
  Available memory per node after mixing [GB]:    922.52
  Renormalizing the density to the exact electron count on the 3D integration grid.
  | Formal number of electrons (from input files) :    9600.0000000000
  | Integrated number of electrons on 3D grid     :    9599.9671751483
  | Charge integration error                      :      -0.0328248517
  | Normalization factor for density and gradient :       1.0000034193

  Evaluating partitioned Hartree potential by multipole expansion.
  | Original multipole sum: apparent total charge =  -0.656114E-11
  | Sum of charges compensated after spline to logarithmic grids =   0.174799E-02
  | Analytical far-field extrapolation by fixed multipoles:
  | Hartree multipole sum: apparent total charge =  -0.654240E-11
  Summing up the Hartree potential.
  Time summed over all CPUs for potential: real work        3.620 s, elapsed        3.800 s
  | RMS charge density error from multipole expansion :   0.183782E+00
  | Average real-space part of the electrostatic potential :      0.18610019 eV

  Integrating Hamiltonian matrix: batch-based integration.
  Time summed over all CPUs for integration: real work      761.618 s, elapsed      831.435 s

  Updating Kohn-Sham eigenvalues and eigenvectors using ELSI and the (modified) LAPACK eigensolver.

  Obtaining occupation numbers and electronic chemical potential using ELSI.
  | Note that, for insulating systems, the printed 'chemical potential' value is not uniquely defined.
  | It can be anywhere in the energy gap, as long as it correctly separates occupied and unoccupied states.
  | In systems with a gap, the physically relevant chemical potential is the VBM or HOMO.

  | Chemical potential (Fermi level):    -6.73665435 eV
  Current spin moment of the entire structure :
  | N = N_up - N_down (sum over all k points):         0.00000
  | S (sum over all k points)                :         0.00000

  What follows are estimated values for band gap, HOMO, LUMO, etc.
  | They are estimated on a discrete k-point grid and not necessarily exact.
  | For converged numbers, create a DOS and/or band structure plot on a denser k-grid.

  Highest occupied state (VBM) at     -6.74864065 eV (relative to internal zero)
  | Occupation number:      0.63270403
  | K-point:       1 at    0.000000    0.000000    0.000000 (in units of recip. lattice)
  | Spin channel:        2

  Lowest unoccupied state (CBM) at    -6.73630466 eV (relative to internal zero)
  | Occupation number:      0.49605421
  | K-point:       2 at    0.000000    0.500000    0.000000 (in units of recip. lattice)
  | Spin channel:        1

  ESTIMATED overall HOMO-LUMO gap:      0.01233599 eV between HOMO at k-point 1 and LUMO at k-point 2
  | This appears to be an indirect band gap.
  | Smallest direct gap :      0.01456412 eV for k_point 1 at    0.000000    0.000000    0.000000 (in units of recip. lattice)
  | Direct gap HOMO spin channel :     2
  | Direct gap LUMO spin channel :     2
  However, this system has fractional occupation numbers. Since we use a finite k-point grid,
  this material is metallic within the approximate finite broadening function (occupation_type)
  applied to determine the occupation numbers.

  Total energy components:
  | Sum of eigenvalues            :     -151855.92731954 Ha    -4132210.02689610 eV
  | XC energy correction          :      -15042.01800879 Ha     -409314.13569313 eV
  | XC potential correction       :       19449.03426839 Ha      529235.14963084 eV
  | Free-atom electrostatic energy:     -108922.91536170 Ha    -2963943.33076806 eV
  | Hartree energy correction     :        -194.44917927 Ha       -5291.23138287 eV
  | Entropy correction            :          -0.00725497 Ha          -0.19741766 eV
  | ---------------------------
  | Total energy                  :     -256566.27560091 Ha    -6981523.57510932 eV
  | Total energy, T -> 0          :     -256566.28285588 Ha    -6981523.77252698 eV  <-- do not rely on this value for anything but (periodic) metals
  | Electronic free energy        :     -256566.29011084 Ha    -6981523.96994463 eV

  Derived energy quantities:
  | Kinetic energy                :      258399.20935593 Ha     7031400.24028014 eV
  | Electrostatic energy          :     -499923.46694805 Ha   -13603609.67969633 eV
  | Energy correction for multipole
  | error in Hartree potential    :           2.31774956 Ha          63.06917458 eV
  | Sum of eigenvalues per atom                           :       -5494.96014215 eV
  | Total energy (T->0) per atom                          :       -9283.94118687 eV  <-- do not rely on this value for anything but (periodic) metals
  | Electronic free energy per atom                       :       -9283.94144939 eV
  Evaluating new KS density using the density matrix
  Evaluating density matrix
  Evaluating density matrix
  Time summed over all CPUs for getting density from density matrix: real work     1617.065 s, elapsed     1719.183 s
  Integration grid: deviation in total charge (<rho> - N_e) =   6.912160E-11
  | <rho_up-rho_dn> = N_up-N_dn =      0.0000; <|rho_up-rho_dn|> =      0.0000

  Self-consistency convergence accuracy:
  | Change of charge/spin density :  0.4338E+00  0.8561E-11
  | Change of unmixed KS charge/spin density :  0.1310E+00  0.2976E-11
  | Change of sum of eigenvalues  : -0.3057E+01 eV
  | Change of total energy        :  0.5666E+00 eV


------------------------------------------------------------
  End self-consistency iteration #    37       :  max(cpu_time)    wall_clock(cpu1)
  | Time for this iteration                     :     1838.293 s        1838.356 s
  | Charge density update                       :      115.299 s         115.302 s
  | Density mixing & preconditioning            :      111.080 s         111.084 s
  | Hartree multipole update                    :        0.053 s           0.052 s
  | Hartree multipole summation                 :        4.055 s           4.055 s
  | Integration                                 :       13.968 s          13.968 s
  | Solution of K.-S. eqns.                     :     1593.824 s        1593.880 s
  | Total energy evaluation                     :        0.001 s           0.001 s

  Partial memory accounting:
  | Current value for overall tracked memory usage:
  |   Minimum:      868.559 MB (on task 15)
  |   Maximum:     2622.557 MB (on task  2)
  |   Average:      923.406 MB
  | Peak value for overall tracked memory usage:
  |   Minimum:     2582.893 MB (on task 19 after allocating kdm_complex)
  |   Maximum:    10281.827 MB (on task  2 after allocating eval_tmp)
  |   Average:     2823.891 MB
  | Largest tracked array allocation so far:
  |   Minimum:     1701.997 MB (KS_eigenvector on task  0)
  |   Maximum:     1753.959 MB (KS_eigenvector on task  1)
  |   Average:     1703.620 MB
  Note:  These values currently only include a subset of arrays which are explicitly tracked.
  The "true" memory usage will be greater.
------------------------------------------------------------

------------------------------------------------------------
          Begin self-consistency iteration #   38

  Date     :  20241008, Time     :  081818.860
------------------------------------------------------------
  Pulay mixing of updated and previous charge densities.
  Available memory per node after mixing [GB]:    924.45
  Renormalizing the density to the exact electron count on the 3D integration grid.
  | Formal number of electrons (from input files) :    9600.0000000000
  | Integrated number of electrons on 3D grid     :    9599.9011972825
  | Charge integration error                      :      -0.0988027175
  | Normalization factor for density and gradient :       1.0000102921

  Evaluating partitioned Hartree potential by multipole expansion.
  | Original multipole sum: apparent total charge =  -0.149981E-10
  | Sum of charges compensated after spline to logarithmic grids =   0.174942E-02
  | Analytical far-field extrapolation by fixed multipoles:
  | Hartree multipole sum: apparent total charge =  -0.149868E-10
  Summing up the Hartree potential.
  Time summed over all CPUs for potential: real work        3.600 s, elapsed        3.761 s
  | RMS charge density error from multipole expansion :   0.185870E+00
  | Average real-space part of the electrostatic potential :      0.18731897 eV

  Integrating Hamiltonian matrix: batch-based integration.
  Time summed over all CPUs for integration: real work      759.488 s, elapsed      825.094 s

  Updating Kohn-Sham eigenvalues and eigenvectors using ELSI and the (modified) LAPACK eigensolver.
