------------------------------------------------------------
          Invoking FHI-aims ...

          When using FHI-aims, please cite the following reference:

            Volker Blum, Ralf Gehrke, Felix Hanke, Paula Havu,
            Ville Havu, Xinguo Ren, Karsten Reuter, and Matthias Scheffler,
            'Ab Initio Molecular Simulations with Numeric Atom-Centered Orbitals',
            Computer Physics Communications 180, 2175-2196 (2009)

          In addition, many other developments in FHI-aims are likely important for
          your particular application. If so, please cite them. A partial list of references
          is written at the end of this file. Thank you for giving credit to the authors
          of these developments.

          For general information about FHI-aims please find us at

            https://fhi-aims.org

          Online tutorials can be found at

            https://fhi-aims-club.gitlab.io/tutorials/tutorials-overview/

          For any questions about FHI-aims, please visit our slack channel at

            https://fhi-aims.slack.com

          and our main development and support site at

            https://aims-git.rz-berlin.mpg.de .

          The latter site, in particular, has a wiki to collect information, as well
          as an issue tracker to log discussions, suggest improvements, and report issues
          or bugs. https://aims-git.rz-berlin.mpg.de is also the main development site
          of the project and all new and updated code versions can be obtained there.
          Please send an email to aims-coordinators@fhi-berlin.mpg.de and we will add
          you to these sites. They are for you and everyone is welcome there.

------------------------------------------------------------



  Date     :  20241006, Time     :  221307.394
  Time zero on CPU 1             :   0.413141000000000E+00  s.
  Internal wall clock time zero  :           497484787.394  s.

  FHI-aims created a unique identifier for this run for later identification
  aims_uuid : 0CB5B10B-798C-4726-A6F3-87D5DD3A29F8

  Build configuration of the current instance of FHI-aims
  -------------------------------------------------------
  FHI-aims version      : 240605
  Commit number         : b001b2e18
  CMake host system     : Linux-6.5.0-41-generic
  CMake version         : 3.22.1
  Fortran compiler      : /opt/intel/oneapi/mpi/2021.12/bin/mpiifort (IntelLLVM) version 2024.1.0
  Fortran compiler flags: -fc=ifx -O3 -ip -fp-model precise
  C compiler            : /opt/intel/oneapi/mpi/2021.12/bin/mpiicc (IntelLLVM) version 2024.1.0
  C compiler flags      : -cc=icx -O3 -ip -fp-model precise -std=gnu99
  C++ compiler          : /opt/intel/oneapi/mpi/2021.12/bin/mpiicpc (IntelLLVM) version 2024.1.0
  C++ compiler flags    : -cxx=icpx -O3 -ip -fp-model precise -std=c++11
  HIP compiler          :
  HIP compiler flags    :
  HIP GPU arch          :
  Using MPI
  Using ScaLAPACK
  Using LibXC
  Using i-PI
  Using RLSY
  Linking against: /opt/intel/oneapi/mkl/2024.1/lib/intel64/libmkl_intel_lp64.so
                   /opt/intel/oneapi/mkl/2024.1/lib/intel64/libmkl_sequential.so
                   /opt/intel/oneapi/mkl/2024.1/lib/intel64/libmkl_core.so
                   /opt/intel/oneapi/mkl/2024.1/lib/intel64/libmkl_blacs_intelmpi_lp64.so
                   /opt/intel/oneapi/mkl/2024.1/lib/intel64/libmkl_scalapack_lp64.so
                   /opt/intel/oneapi/mkl/2024.1/lib/intel64/libmkl_core.so

  Using       32 parallel tasks.
  Task        0 on host RSL-arvutus reporting.
  Task        1 on host RSL-arvutus reporting.
  Task        2 on host RSL-arvutus reporting.
  Task        3 on host RSL-arvutus reporting.
  Task        4 on host RSL-arvutus reporting.
  Task        5 on host RSL-arvutus reporting.
  Task        6 on host RSL-arvutus reporting.
  Task        7 on host RSL-arvutus reporting.
  Task        8 on host RSL-arvutus reporting.
  Task        9 on host RSL-arvutus reporting.
  Task       10 on host RSL-arvutus reporting.
  Task       11 on host RSL-arvutus reporting.
  Task       12 on host RSL-arvutus reporting.
  Task       13 on host RSL-arvutus reporting.
  Task       14 on host RSL-arvutus reporting.
  Task       15 on host RSL-arvutus reporting.
  Task       16 on host RSL-arvutus reporting.
  Task       17 on host RSL-arvutus reporting.
  Task       18 on host RSL-arvutus reporting.
  Task       19 on host RSL-arvutus reporting.
  Task       20 on host RSL-arvutus reporting.
  Task       21 on host RSL-arvutus reporting.
  Task       22 on host RSL-arvutus reporting.
  Task       23 on host RSL-arvutus reporting.
  Task       24 on host RSL-arvutus reporting.
  Task       25 on host RSL-arvutus reporting.
  Task       26 on host RSL-arvutus reporting.
  Task       27 on host RSL-arvutus reporting.
  Task       28 on host RSL-arvutus reporting.
  Task       29 on host RSL-arvutus reporting.
  Task       30 on host RSL-arvutus reporting.
  Task       31 on host RSL-arvutus reporting.

  Memory overcommitment is allowed on your operating system.

  Obtaining array dimensions for all initial allocations:
  
  -----------------------------------------------------------------------
  Parsing control.in (first pass over file, find array dimensions only).
  The contents of control.in will be repeated verbatim below
  unless switched off by setting 'verbatim_writeout .false.' .
  in the first line of control.in .
  -----------------------------------------------------------------------
  
    xc              pbe
    relativistic    atomic_zora scalar
    KS_method	  serial
    k_grid          4 8 2
  
    spin		  collinear
    default_initial_moment	0.0
    charge          0.1
  
    restart_write_only   restart
  
    output          Mulliken
  
  
  ################################################################################
  #
  #  FHI-aims code project
  #  VB, Fritz-Haber Institut, 2009
  #
  #  Suggested "light" defaults for Ti atom (to be pasted into control.in file)
  #  Be sure to double-check any results obtained with these settings for post-processing,
  #  e.g., with the "tight" defaults and larger basis sets.
  #
  ################################################################################
    species        Ti
  #     global species definitions
      nucleus             22
      mass                47.867
  #
      l_hartree           4
  #
      cut_pot             3.5          1.5  1.0
      basis_dep_cutoff    1e-4
  #
      radial_base         48 5.0
      radial_multiplier   1
      angular_grids       specified
        division   0.5171   50
        division   0.9824  110
        division   1.2917  194
        division   1.4940  302
  #      division   1.6934  434
  #      division   1.8425  590
  #      division   2.1901  770
  #      division   2.2896  974
  #      division   2.8244 1202
  #      outer_grid  974
        outer_grid  302
  ################################################################################
  #
  #  Definition of "minimal" basis
  #
  ################################################################################
  #     valence basis states
      valence      4  s   2.
      valence      3  p   6.
      valence      3  d   2.
  #     ion occupancy
      ion_occ      4  s   1.
      ion_occ      3  p   6.
      ion_occ      3  d   1.
  ################################################################################
  #
  #  Suggested additional basis functions. For production calculations,
  #  uncomment them one after another (the most important basis functions are
  #  listed first).
  #
  #  Constructed for dimers: 1.6 A, 1.85 A, 2.5 A, 3.25 A, 4.25 A
  #
  ################################################################################
  #  "First tier" - improvements: -396.25 meV to -19.41 meV
       hydro 4 f 8
       hydro 3 d 2.7
       ionic 4 p auto
  #     hydro 5 g 11.6
       ionic 4 s auto
  #  "Second tier" - improvements: -16.30 meV to -2.03 meV
  #     hydro 3 d 4.4
  #     hydro 6 h 16
  #     hydro 4 f 9.4
  #     hydro 4 p 4.5
  #     hydro 1 s 0.5
  #  "Third tier" - improvements: -6.28 meV to -0.37 meV
  #     hydro 4 d 6.4
  #     hydro 4 f 10
  #     hydro 5 g 12
  #     hydro 2 p 1.7
  #     hydro 6 h 16.4
  #     hydro 4 s 3.8
  #  Further basis functions: -0.45 meV and smaller improvements
  #     hydro 3 d 8.8
  #     hydro 5 p 18
  #     hydro 4 f 22.4
  #     hydro 5 f 7.2  # -0.16 meV
  #     hydro 3 d 2.1  # -0.11 meV
  #     hydro 5 g 7.4  # -0.09 meV
  
  
  ################################################################################
  #
  #  FHI-aims code project
  #  VB, Fritz-Haber Institut, 2009
  #
  #  Suggested "light" defaults for O atom (to be pasted into control.in file)
  #  Be sure to double-check any results obtained with these settings for post-processing,
  #  e.g., with the "tight" defaults and larger basis sets.
  #
  ################################################################################
    species        O
  #     global species definitions
      nucleus             8
      mass                15.9994
  #
      l_hartree           4
  #
      cut_pot             3.5  1.5  1.0
      basis_dep_cutoff    1e-4
  #
      radial_base         36 5.0
      radial_multiplier   1
       angular_grids specified
        division   0.2659   50
        division   0.4451  110
        division   0.6052  194
        division   0.7543  302
  #      division   0.8014  434
  #      division   0.8507  590
  #      division   0.8762  770
  #      division   0.9023  974
  #      division   1.2339 1202
  #      outer_grid 974
        outer_grid 302
  ################################################################################
  #
  #  Definition of "minimal" basis
  #
  ################################################################################
  #     valence basis states
      valence      2  s   2.
      valence      2  p   4.
  #     ion occupancy
      ion_occ      2  s   1.
      ion_occ      2  p   3.
  ################################################################################
  #
  #  Suggested additional basis functions. For production calculations,
  #  uncomment them one after another (the most important basis functions are
  #  listed first).
  #
  #  Constructed for dimers: 1.0 A, 1.208 A, 1.5 A, 2.0 A, 3.0 A
  #
  ################################################################################
  #  "First tier" - improvements: -699.05 meV to -159.38 meV
       hydro 2 p 1.8
       hydro 3 d 7.6
       hydro 3 s 6.4
  #  "Second tier" - improvements: -49.91 meV to -5.39 meV
  #     hydro 4 f 11.6
  #     hydro 3 p 6.2
  #     hydro 3 d 5.6
  #     hydro 5 g 17.6
  #     hydro 1 s 0.75
  #  "Third tier" - improvements: -2.83 meV to -0.50 meV
  #     ionic 2 p auto
  #     hydro 4 f 10.8
  #     hydro 4 d 4.7
  #     hydro 2 s 6.8
  #  "Fourth tier" - improvements: -0.40 meV to -0.12 meV
  #     hydro 3 p 5
  #     hydro 3 s 3.3
  #     hydro 5 g 15.6
  #     hydro 4 f 17.6
  #     hydro 4 d 14
  # Further basis functions - -0.08 meV and below
  #     hydro 3 s 2.1
  #     hydro 4 d 11.6
  #     hydro 3 p 16
  #     hydro 2 s 17.2
  
  ################################################################################
  #
  #  "Core" basis functions and numerical settings for O atom.
  #  Based on “tight” defaults (V. Blum, 2009).
  #
  ################################################################################
    species        O1
  #     global species definitions
      nucleus             8.1
      mass                15.9994
  #
      l_hartree           6
  #
      cut_pot             4.0  2.0  1.0
      basis_dep_cutoff    1e-4
  #
      radial_base         36 7.0
      radial_multiplier   2
       angular_grids specified
        division   0.1817   50
        division   0.3417  110
        division   0.4949  194
        division   0.6251  302
        division   0.8014  434
  #      division   0.8507  590
  #      division   0.8762  770
  #      division   0.9023  974
  #      division   1.2339 1202
  #      outer_grid 974
        outer_grid  434
  ################################################################################
  #
  #  Definition of "minimal" basis
  #
  ################################################################################
  #     valence basis states
      valence      2  s   2.
      valence      2  p   4.1
  #     ion occupancy
      ion_occ      2  s   1.
      ion_occ      2  p   3.
  ################################################################################
  #
  #  Suggested additional basis functions. For production calculations,
  #  uncomment them one after another (the most important basis functions are
  #  listed first).
  #
  #  Constructed for dimers: 1.0 A, 1.208 A, 1.5 A, 2.0 A, 3.0 A
  #
  ################################################################################
  #  "First tier" - improvements: -699.05 meV to -159.38 meV
       hydro 2 p 1.8
       hydro 3 d 7.6
       hydro 3 s 6.4
  #  "Second tier" - improvements: -49.91 meV to -5.39 meV
       hydro 4 f 11.6
       hydro 3 p 6.2
       hydro 3 d 5.6
       hydro 5 g 17.6
       hydro 1 s 0.75
  #  "Third tier" - improvements: -2.83 meV to -0.50 meV
       ionic 2 p auto
       hydro 4 f 10.8
       hydro 4 d 4.7
       hydro 2 s 6.8
  #  "Fourth tier" - improvements: -0.40 meV to -0.12 meV
  #     hydro 3 p 5
  #     hydro 3 s 3.3
  #     hydro 5 g 15.6
  #     hydro 4 f 17.6
  #     hydro 4 d 14
  # Further basis functions - -0.08 meV and below
  #     hydro 3 s 2.1
  #     hydro 4 d 11.6
  #     hydro 3 p 16
  #     hydro 2 s 17.2
  
  # Additional basis functions for atom with a core hole
       hydro 1 s 12.0
       hydro 1 s 10.0
       hydro 1 s 6.0
       hydro 2 s 10.0
       hydro 2 p 8.0
       hydro 2 p 6.0
       hydro 3 d 8.0
  
  -----------------------------------------------------------------------
  Completed first pass over input file control.in .
  -----------------------------------------------------------------------
  
  
  -----------------------------------------------------------------------
  Parsing geometry.in (first pass over file, find array dimensions only).
  The contents of geometry.in will be repeated verbatim below
  unless switched off by setting 'verbatim_writeout .false.' .
  in the first line of geometry.in .
  -----------------------------------------------------------------------
  
  lattice_vector 6.566127 0.000000 0.000000
  lattice_vector 0.000000 2.972883 0.000000
  lattice_vector 0.000000 0.000000 20.289704
  
  atom -0.000000 0.000000 7.500000 Ti
  atom 3.283063 1.486441 7.500000 Ti
  atom 1.276729 1.486441 7.500029 O1
  atom 3.283086 0.000000 8.776767 O
  atom 6.566086 0.000000 9.506468 O
  atom 2.006317 1.486441 10.783206 O
  atom 3.283046 0.000000 10.783235 Ti
  atom 6.566109 1.486441 10.783235 Ti
  atom 4.559775 1.486441 10.783265 O
  atom 0.000005 0.000000 12.060002 O
  atom 3.283006 0.000000 12.789704 O
  
  -----------------------------------------------------------------------
  Completed first pass over input file geometry.in .
  -----------------------------------------------------------------------
  

  Basic array size parameters:
  | Number of species                 :        3
  | Number of atoms                   :       11
  | Number of lattice vectors         :        3
  | Max. basis fn. angular momentum   :        4
  | Max. atomic/ionic basis occupied n:        4
  | Max. number of basis fn. types    :        3
  | Max. radial fns per species/type  :       18
  | Max. logarithmic grid size        :     1383
  | Max. radial integration grid size :       73
  | Max. angular integration grid size:      434
  | Max. angular grid division number :        8
  | Radial grid for Hartree potential :     1383
  | Number of spin channels           :        2

------------------------------------------------------------
          Reading file control.in.
------------------------------------------------------------
  XC: Using PBE gradient-corrected functionals.
  Scalar relativistic treatment of kinetic energy: on-site free-atom approximation to ZORA.
  Kohn-Sham eigenvalues and eigenfunctions calculated by LAPACK via ELSI.
  Found k-point grid:         4         8         2
  Spin treatment: Spin density functional theory - collinear spins.
  Initial spin moment per atom:   0.0000
  Charged system requested: Charge =   0.100000E+00.
  Writing restart information to file restart000
  Mulliken charge analysis will be performed and summarised to the main output.
  Full Mulliken charge analysis will be written to file 'Mulliken.out'.
 
  Reading configuration options for species Ti                  .
  | Found nuclear charge :  22.0000
  | Found atomic mass :    47.8670000000000      amu
  | Found l_max for Hartree potential  :   4
  | Found cutoff potl. onset [A], width [A], scale factor :    3.50000    1.50000    1.00000
  | Threshold for basis-dependent cutoff potential is   0.100000E-03
  | Found data for basic radial integration grid :    48 points, outermost radius =    5.000 A
  | Found multiplier for basic radial grid :   1
  | Found angular grid specification: user-specified.
  | Specified grid contains     5 separate shells.
  | Check grid settings after all constraints further below.
  | Found free-atom valence shell :  4 s   2.000
  | Found free-atom valence shell :  3 p   6.000
  | Found free-atom valence shell :  3 d   2.000
  | Found free-ion valence shell :  4 s   1.000
  | Found free-ion valence shell :  3 p   6.000
  | Found free-ion valence shell :  3 d   1.000
  | Found hydrogenic basis function :  4 f   8.000
  | Found hydrogenic basis function :  3 d   2.700
  | Found ionic basis function :  4 p , default cutoff radius.
  | Found ionic basis function :  4 s , default cutoff radius.
 | Encountered keyword species, ending the description of species Ti                  .
  Species Ti                  : Missing cutoff potential type.
  Defaulting to exp(1/x)/(1-x)^2 type cutoff potential.
  Species Ti: No 'logarithmic' tag. Using default grid for free atom:
  | Default logarithmic grid data [bohr] : 0.1000E-03 0.1000E+03 0.1012E+01
  | Will include ionic basis functions of  2.0-fold positive Ti                   ion.
  Species Ti: On-site basis accuracy parameter (for Gram-Schmidt orthonormalisation) not specified.
  Using default value basis_acc =  0.1000000E-03.
  Species Ti                  : Using default innermost maximum threshold i_radial=  2 for radial functions.
  Species Ti                  : Default cutoff onset for free atom density etc. : 0.35000000E+01 AA.
  Species Ti                  : Basic radial grid will be enhanced according to radial_multiplier =   1, to contain    48 grid points.
 
  Reading configuration options for species O                   .
  | Found nuclear charge :   8.0000
  | Found atomic mass :    15.9994000000000      amu
  | Found l_max for Hartree potential  :   4
  | Found cutoff potl. onset [A], width [A], scale factor :    3.50000    1.50000    1.00000
  | Threshold for basis-dependent cutoff potential is   0.100000E-03
  | Found data for basic radial integration grid :    36 points, outermost radius =    5.000 A
  | Found multiplier for basic radial grid :   1
  | Found angular grid specification: user-specified.
  | Specified grid contains     5 separate shells.
  | Check grid settings after all constraints further below.
  | Found free-atom valence shell :  2 s   2.000
  | Found free-atom valence shell :  2 p   4.000
  | Found free-ion valence shell :  2 s   1.000
  | Found free-ion valence shell :  2 p   3.000
  | Found hydrogenic basis function :  2 p   1.800
  | Found hydrogenic basis function :  3 d   7.600
  | Found hydrogenic basis function :  3 s   6.400
 | Encountered keyword species, ending the description of species O                   .
  Species O                   : Missing cutoff potential type.
  Defaulting to exp(1/x)/(1-x)^2 type cutoff potential.
  Species O : No 'logarithmic' tag. Using default grid for free atom:
  | Default logarithmic grid data [bohr] : 0.1000E-03 0.1000E+03 0.1012E+01
  Species O : On-site basis accuracy parameter (for Gram-Schmidt orthonormalisation) not specified.
  Using default value basis_acc =  0.1000000E-03.
  Species O                   : Using default innermost maximum threshold i_radial=  2 for radial functions.
  Species O                   : Default cutoff onset for free atom density etc. : 0.35000000E+01 AA.
  Species O                   : Basic radial grid will be enhanced according to radial_multiplier =   1, to contain    36 grid points.
 
  Reading configuration options for species O1                  .
  | Found nuclear charge :   8.1000
  | Found atomic mass :    15.9994000000000      amu
  | Found l_max for Hartree potential  :   6
  | Found cutoff potl. onset [A], width [A], scale factor :    4.00000    2.00000    1.00000
  | Threshold for basis-dependent cutoff potential is   0.100000E-03
  | Found data for basic radial integration grid :    36 points, outermost radius =    7.000 A
  | Found multiplier for basic radial grid :   2
  | Found angular grid specification: user-specified.
  | Specified grid contains     6 separate shells.
  | Check grid settings after all constraints further below.
  | Found free-atom valence shell :  2 s   2.000
  | Found free-atom valence shell :  2 p   4.100
  | Found free-ion valence shell :  2 s   1.000
  | Found free-ion valence shell :  2 p   3.000
  | Found hydrogenic basis function :  2 p   1.800
  | Found hydrogenic basis function :  3 d   7.600
  | Found hydrogenic basis function :  3 s   6.400
  | Found hydrogenic basis function :  4 f  11.600
  | Found hydrogenic basis function :  3 p   6.200
  | Found hydrogenic basis function :  3 d   5.600
  | Found hydrogenic basis function :  5 g  17.600
  | Found hydrogenic basis function :  1 s   0.750
  | Found ionic basis function :  2 p , default cutoff radius.
  | Found hydrogenic basis function :  4 f  10.800
  | Found hydrogenic basis function :  4 d   4.700
  | Found hydrogenic basis function :  2 s   6.800
  | Found hydrogenic basis function :  1 s  12.000
  | Found hydrogenic basis function :  1 s  10.000
  | Found hydrogenic basis function :  1 s   6.000
  | Found hydrogenic basis function :  2 s  10.000
  | Found hydrogenic basis function :  2 p   8.000
  | Found hydrogenic basis function :  2 p   6.000
  | Found hydrogenic basis function :  3 d   8.000
  Species O1                  : Missing cutoff potential type.
  Defaulting to exp(1/x)/(1-x)^2 type cutoff potential.
  Species O1: No 'logarithmic' tag. Using default grid for free atom:
  | Default logarithmic grid data [bohr] : 0.1000E-03 0.1000E+03 0.1012E+01
  | Will include ionic basis functions of  2.1-fold positive O1                   ion.
  Species O1: On-site basis accuracy parameter (for Gram-Schmidt orthonormalisation) not specified.
  Using default value basis_acc =  0.1000000E-03.
  Species O1                  : Using default innermost maximum threshold i_radial=  2 for radial functions.
  Species O1                  : Default cutoff onset for free atom density etc. : 0.40000000E+01 AA.
  Species O1                  : Basic radial grid will be enhanced according to radial_multiplier =   2, to contain    73 grid points.
 
  Finished reading input file 'control.in'.
 
------------------------------------------------------------


------------------------------------------------------------
          Reading geometry description geometry.in.
------------------------------------------------------------
  | The smallest distance between any two atoms is         1.95947539 AA.
  | The first atom of this pair is atom number                      1 .
  | The second atom of this pair is atom number                     3 .
  | Wigner-Seitz cell of the first atom image           0     0     0 .
  | (The Wigner-Seitz cell of the second atom is 0 0 0  by definition.)

  Symmetry information by spglib:
  | Precision set to  0.1E-04
  | Number of Operations  : 2
  | Space group           : 6
  | International         : Pm      /op
  | Schoenflies           : Cs^1
  Input structure read successfully.
  The structure contains       11 atoms,  and a total of        144.000 electrons.

  Input geometry:
  | Unit cell:
  |        6.56612700        0.00000000        0.00000000
  |        0.00000000        2.97288300        0.00000000
  |        0.00000000        0.00000000       20.28970400
  | Atomic structure:
  |       Atom                x [A]            y [A]            z [A]
  |    1: Species Ti            0.00000000        0.00000000        7.50000000
  |    2: Species Ti            3.28306300        1.48644100        7.50000000
  |    3: Species O1            1.27672900        1.48644100        7.50002900
  |    4: Species O             3.28308600        0.00000000        8.77676700
  |    5: Species O             6.56608600        0.00000000        9.50646800
  |    6: Species O             2.00631700        1.48644100       10.78320600
  |    7: Species Ti            3.28304600        0.00000000       10.78323500
  |    8: Species Ti            6.56610900        1.48644100       10.78323500
  |    9: Species O             4.55977500        1.48644100       10.78326500
  |   10: Species O             0.00000500        0.00000000       12.06000200
  |   11: Species O             3.28300600        0.00000000       12.78970400

  Lattice parameters for 3D lattice (in Angstroms) :     6.566127    2.972883   20.289704
  Angle(s) between unit vectors (in degrees)       :    90.000000   90.000000   90.000000


  Quantities derived from the lattice vectors (in Angstrom^-1):
  | Reciprocal lattice vector 1:  0.956909  0.000000  0.000000
  | Reciprocal lattice vector 2:  0.000000  2.113499  0.000000
  | Reciprocal lattice vector 3:  0.000000  0.000000  0.309674
  | Unit cell volume                               :   0.396062E+03  Angstrom^3

  Fractional coordinates:
                         L1                L2                L3
       atom_frac         0.00000000        0.00000000        0.36964561  Ti
       atom_frac         0.49999992        0.49999983        0.36964561  Ti
       atom_frac         0.19444172        0.49999983        0.36964704  O1
       atom_frac         0.50000343        0.00000000        0.43257245  O
       atom_frac         0.99999376        0.00000000        0.46853655  O
       atom_frac         0.30555562        0.49999983        0.53146197  O
       atom_frac         0.49999733        0.00000000        0.53146340  Ti
       atom_frac         0.99999726        0.49999983        0.53146340  Ti
       atom_frac         0.69443905        0.49999983        0.53146487  O
       atom_frac         0.00000076        0.00000000        0.59439024  O
       atom_frac         0.49999124        0.00000000        0.63035439  O

  Initial moments and charges:
  |  Atom   Moment         Charge        Species
  |     1   0.000000E+00   0.000000E+00   Ti
  |     2   0.000000E+00   0.000000E+00   Ti
  |     3   0.000000E+00   0.000000E+00   O1
  |     4   0.000000E+00   0.000000E+00   O
  |     5   0.000000E+00   0.000000E+00   O
  |     6   0.000000E+00   0.000000E+00   O
  |     7   0.000000E+00   0.000000E+00   Ti
  |     8   0.000000E+00   0.000000E+00   Ti
  |     9   0.000000E+00   0.000000E+00   O
  |    10   0.000000E+00   0.000000E+00   O
  |    11   0.000000E+00   0.000000E+00   O

  Slab Identifier: This is Z-oriented slab and maximum thickness of the vacuum is: 15.000 Angstrom.
 
  Finished reading input file 'geometry.in'.
 

 
  Consistency checks for stacksize environment parameter are next.
 
  | Maximum stacksize for task 0: unlimited
  | Maximum stacksize for task 1: unlimited
  | Maximum stacksize for task 2: unlimited
  | Maximum stacksize for task 3: unlimited
  | Maximum stacksize for task 4: unlimited
  | Maximum stacksize for task 5: unlimited
  | Maximum stacksize for task 6: unlimited
  | Maximum stacksize for task 7: unlimited
  | Maximum stacksize for task 8: unlimited
  | Maximum stacksize for task 9: unlimited
  | Maximum stacksize for task 10: unlimited
  | Maximum stacksize for task 11: unlimited
  | Maximum stacksize for task 12: unlimited
  | Maximum stacksize for task 13: unlimited
  | Maximum stacksize for task 14: unlimited
  | Maximum stacksize for task 15: unlimited
  | Maximum stacksize for task 16: unlimited
  | Maximum stacksize for task 17: unlimited
  | Maximum stacksize for task 18: unlimited
  | Maximum stacksize for task 19: unlimited
  | Maximum stacksize for task 20: unlimited
  | Maximum stacksize for task 21: unlimited
  | Maximum stacksize for task 22: unlimited
  | Maximum stacksize for task 23: unlimited
  | Maximum stacksize for task 24: unlimited
  | Maximum stacksize for task 25: unlimited
  | Maximum stacksize for task 26: unlimited
  | Maximum stacksize for task 27: unlimited
  | Maximum stacksize for task 28: unlimited
  | Maximum stacksize for task 29: unlimited
  | Maximum stacksize for task 30: unlimited
  | Maximum stacksize for task 31: unlimited
  | Current stacksize for task 0: unlimited
  | Current stacksize for task 1: unlimited
  | Current stacksize for task 2: unlimited
  | Current stacksize for task 3: unlimited
  | Current stacksize for task 4: unlimited
  | Current stacksize for task 5: unlimited
  | Current stacksize for task 6: unlimited
  | Current stacksize for task 7: unlimited
  | Current stacksize for task 8: unlimited
  | Current stacksize for task 9: unlimited
  | Current stacksize for task 10: unlimited
  | Current stacksize for task 11: unlimited
  | Current stacksize for task 12: unlimited
  | Current stacksize for task 13: unlimited
  | Current stacksize for task 14: unlimited
  | Current stacksize for task 15: unlimited
  | Current stacksize for task 16: unlimited
  | Current stacksize for task 17: unlimited
  | Current stacksize for task 18: unlimited
  | Current stacksize for task 19: unlimited
  | Current stacksize for task 20: unlimited
  | Current stacksize for task 21: unlimited
  | Current stacksize for task 22: unlimited
  | Current stacksize for task 23: unlimited
  | Current stacksize for task 24: unlimited
  | Current stacksize for task 25: unlimited
  | Current stacksize for task 26: unlimited
  | Current stacksize for task 27: unlimited
  | Current stacksize for task 28: unlimited
  | Current stacksize for task 29: unlimited
  | Current stacksize for task 30: unlimited
  | Current stacksize for task 31: unlimited
 
  Consistency checks for the contents of control.in are next.
 
  MPI_IN_PLACE appears to work with this MPI implementation.
  | Keeping use_mpi_in_place .true. (see manual).
  Target number of points in a grid batch is not set. Defaulting to  100
  Method for grid partitioning is not set. Defaulting to parallel hash+maxmin partitioning.
  Batch size limit is not set. Defaulting to    200
  By default, will store active basis functions for each batch.
  If in need of memory, prune_basis_once .false. can be used to disable this option.
  communication_type for Hartree potential was not specified.
  Defaulting to calc_hartree .
  Defaulting to Pulay charge density mixer.
  Pulay mixer: Number of relevant iterations not set.
  Defaulting to    8 iterations.
  Pulay mixer: Number of initial linear mixing iterations not set.
  Defaulting to    0 iterations.
  Work space size for distributed Hartree potential not set.
  Defaulting to   0.200000E+03 MB.
  Mixing parameter for charge density mixing has not been set.
  Using default: charge_mix_param =     0.0500.
  The mixing parameter will be adjusted in iteration number     2 of each s.c.f. cycle (i.e., each geometry step).
  Mixing parameter for spin density mixing has not been set.
  Using charge_mix_param as default:     0.0500.
  Algorithm-dependent basis array size parameters:
  | n_max_pulay                         :        8
  Maximum number of self-consistency iterations not provided.
  Presetting  1000 iterations.
  Presetting      1001 iterations before the initial mixing cycle
  is restarted anyway using the sc_init_iter criterion / keyword.
  Presetting a factor      1.000 between actual scf density residual
  and density convergence criterion sc_accuracy_rho below which sc_init_iter
  takes no effect.
 * No s.c.f. convergence criteria (sc_accuracy_*) were provided in control.in.
 * The run will proceed with a reasonable default guess, but please check whether.
 * the s.c.f. cycles seem to take too much or too little time.
  Calculation of forces was not defined in control.in. No forces will be calculated.
  Geometry relaxation not requested: no relaxation will be performed.
 * Notice: The s.c.f. convergence criterion sc_accuracy_rho was not provided.
 * We used to stop in this case, and ask the user to provide reasonable
 * scf convergence criteria. However, this led some users to employ criteria
 * that led to extremely long run times, e.g., for simple relaxation.
 * We now preset a default value for sc_accuracy_rho if it is not set.
 * You may still wish to check if this setting is too tight or too loose for your needs.
 * Based on n_atoms and forces and force-correction status, FHI-aims chose sc_accuracy_rho =  0.135401E-05 .
  No accuracy limit for integral partition fn. given. Defaulting to  0.1000E-14.
  No threshold value for u(r) in integrations given. Defaulting to  0.1000E-05.
  No occupation type (smearing scheme) given. Defaulting to Gaussian broadening, width =  0.1000E-01 eV.
  The width will be adjusted in iteration number     2 of each s.c.f. cycle (i.e., each geometry step).
  No accuracy for occupation numbers given. Defaulting to  0.1000E-12.
  No threshold value for occupation numbers given. Defaulting to  0.0000E+00.
  No accuracy for fermi level given. Defaulting to  0.1000E-19.
  Maximum # of iterations to find E_F not set. Defaulting to  200.
  Will not use alltoall communication since running on < 1024 CPUs.
  Threshold for basis singularities not set.
  Default threshold for basis singularities:  0.1000E-04
  partition_type (choice of integration weights) for integrals was not specified.
  | Using a version of the partition function of Stratmann and coworkers ('stratmann_sparse').
  | At each grid point, the set of atoms used to build the partition table is smoothly restricted to
  | only those atoms whose free-atom density would be non-zero at that grid point.
  Partitioning for Hartree potential was not defined. Using partition_type for integrals.
  | Adjusted default value of keyword multip_moments_threshold to:       0.10000000E-11
  | This value may affect high angular momentum components of the Hartree potential in periodic systems.
  Angular momentum expansion for Kerker preconditioner not set explicitly.
  | Using default value of   0
  No explicit requirement for turning off preconditioner.
  | By default, it will be turned off when the charge convergence reaches
  | sc_accuracy_rho  =   0.135401E-05
  No special mixing parameter while Kerker preconditioner is on.
  Using default: charge_mix_param =     0.0500.
  No q(lm)/r^(l+1) cutoff set for long-range Hartree potential.
  | Using default value of  0.100000E-09 .
  | Verify using the multipole_threshold keyword.
  Defaulting to new monopole extrapolation.
  Density update method: automatic selection selected.
  Using density matrix based charge density update.
  Using density matrix based charge density update.
  Using packed matrix style: index .
  Defaulting to use time-reversal symmetry for k-point grid.
  Charge integration errors on the 3D integration grid will be compensated
  by explicit normalization and distribution of residual charges.
  Use the "compensate_multipole_errors" flag to change this behaviour.
  Set 'collect_eigenvectors' to be '.true.' for all serial calculations. This is mandatory.
  Set 'collect_eigenvectors' to be '.true.' for KS_method lapack_fast and serial.
  Found potential conflicts with setting 'use_local_index' for this calculation. Will not set it.
 
  Consistency checks for the contents of geometry.in are next.
 

  Range separation radius for Ewald summation (hartree_convergence_parameter):      4.79960566 bohr.
 * Warning: Initial charge and total charge of the system are inconsistent.
 * Selected charge in control.in:     0.1000* Sum of initial charges in geometry.in:     0.0000
  Number of empty states per atom not set in control.in - providing a guess from actual geometry.
  | Total number of empty states used during s.c.f. cycle:       43
  If you use a very high smearing, use empty_states (per atom!) in control.in to increase this value.

  Structure-dependent array size parameters: 
  | Number of distinct atom types in initial rho :        3
  | Maximum number of distinct radial functions  :       39
  | Maximum number of basis functions            :      278
  | Number of Kohn-Sham states (occupied + empty):      115
------------------------------------------------------------
  After read_input_data [GB]:    711.21

  Performing system and environment tests:
  *** Environment variable OMP_NUM_THREADS is not set
  *** For performance reasons you might want to set it to 1
  | Checking for ScaLAPACK...
  | Testing pdtran()...
  | All pdtran() tests passed.
  After prepare_system [GB]:    711.13

------------------------------------------------------------
          Preparing all fixed parts of the calculation.
------------------------------------------------------------
  Determining machine precision:
    2.225073858507201E-308
  Setting up grids for atomic and cluster calculations.

  Creating wave function, potential, and density for free atoms.
  Runtime choices for atomic solver:
  | atomic solver xc        : PBE
  | compute density gradient: 1
  | compute kinetic density : F

  Species: Ti

  List of occupied orbitals and eigenvalues:
    n    l              occ      energy [Ha]    energy [eV]
    1    0           2.0000      -179.959082     -4896.9358
    2    0           2.0000       -19.727662      -536.8170
    3    0           2.0000        -2.283029       -62.1244
    4    0           2.0000        -0.148384        -4.0377
    2    1           6.0000       -16.317278      -444.0157
    3    1           6.0000        -1.409348       -38.3503
    3    2           2.0000        -0.139340        -3.7916


  Species: O

  List of occupied orbitals and eigenvalues:
    n    l              occ      energy [Ha]    energy [eV]
    1    0           2.0000       -18.926989      -515.0296
    2    0           2.0000        -0.880247       -23.9527
    2    1           4.0000        -0.331514        -9.0210


  Species: O1

  List of occupied orbitals and eigenvalues:
    n    l              occ      energy [Ha]    energy [eV]
    1    0           2.0000       -19.443516      -529.0850
    2    0           2.0000        -0.901438       -24.5294
    2    1           4.1000        -0.339232        -9.2310

  Spin-polarized or charged system:
  Charge density initialized according to selected moments and charges.

  Creating spin-polarized density from free atoms.

  Species: Ti
  Charge:   0.000000
  Moment:   0.000000

  List of occupied orbitals and eigenvalues:
    n    l      energy [Ha]    energy [eV]    occupation
  Spin-up
    1    0      -179.959082     -4896.9358     1.00000000
    2    0       -19.727662      -536.8170     1.00000000
    3    0        -2.283029       -62.1244     1.00000000
    4    0        -0.148384        -4.0377     1.00000000
    2    1       -16.317278      -444.0157     3.00000000
    3    1        -1.409348       -38.3503     3.00000000
    3    2        -0.139340        -3.7916     1.00000000
  Spin-down
    1    0      -179.959082     -4896.9358     1.00000000
    2    0       -19.727662      -536.8170     1.00000000
    3    0        -2.283029       -62.1244     1.00000000
    4    0        -0.148384        -4.0377     1.00000000
    2    1       -16.317278      -444.0157     3.00000000
    3    1        -1.409348       -38.3503     3.00000000
    3    2        -0.139340        -3.7916     1.00000000


  Species: O1
  Charge:   0.000000
  Moment:   0.000000

  List of occupied orbitals and eigenvalues:
    n    l      energy [Ha]    energy [eV]    occupation
  Spin-up
    1    0       -19.443516      -529.0850     1.00000000
    2    0        -0.901438       -24.5294     1.00000000
    2    1        -0.339232        -9.2310     2.05000000
  Spin-down
    1    0       -19.443516      -529.0850     1.00000000
    2    0        -0.901438       -24.5294     1.00000000
    2    1        -0.339232        -9.2310     2.05000000


  Species: O
  Charge:   0.000000
  Moment:   0.000000

  List of occupied orbitals and eigenvalues:
    n    l      energy [Ha]    energy [eV]    occupation
  Spin-up
    1    0       -18.926989      -515.0296     1.00000000
    2    0        -0.880247       -23.9527     1.00000000
    2    1        -0.331514        -9.0210     2.00000000
  Spin-down
    1    0       -18.926989      -515.0296     1.00000000
    2    0        -0.880247       -23.9527     1.00000000
    2    1        -0.331514        -9.0210     2.00000000


  Adding cutoff potential to free-atom effective potential.
  Creating fixed part of basis set: Ionic, confined, hydrogenic.
 
  Ti                   ion:

  List of free ionic orbitals and eigenvalues:
    n    l      energy [Ha]    energy [eV]
    1    0      -180.819616     -4920.3521
    2    0       -20.608761      -560.7929
    3    0        -3.115729       -84.7833
    4    0        -0.697188       -18.9715
    2    1       -17.196209      -467.9327
    3    1        -2.231296       -60.7167
    3    2        -0.911363       -24.7995


  List of ionic basis orbitals and eigenvalues:
    n    l      energy [Ha]    energy [eV]    outer radius [A]
    4    1        -0.517739       -14.0884       4.592117
    4    0        -0.696824       -18.9615       4.536321

 
  Ti                   hydrogenic:
 
  List of hydrogenic basis orbitals: 
    n    l      effective z      eigenvalue [eV]  inner max. [A]     outer max. [A]     outer radius [A]   
    4    3         8.000000       -54.4222           1.059019           1.059019           4.267343
    3    2         2.700000       -10.7798           1.726925           1.726925           4.592117
 
 
  O                    hydrogenic:
 
  List of hydrogenic basis orbitals: 
    n    l      effective z      eigenvalue [eV]  inner max. [A]     outer max. [A]     outer radius [A]   
    2    1         1.800000       -10.9749           1.164242           1.164242           4.578029
    3    2         7.600000       -87.3180           0.624125           0.624125           3.251020
    3    0         6.400000       -61.9207           0.061167           1.081902           4.001998
 
 
  O1                   ion:

  List of free ionic orbitals and eigenvalues:
    n    l      energy [Ha]    energy [eV]
    1    0       -21.112423      -574.4983
    2    0        -2.242749       -61.0283
    2    1        -1.673061       -45.5263


  List of ionic basis orbitals and eigenvalues:
    n    l      energy [Ha]    energy [eV]    outer radius [A]
    2    1        -1.673055       -45.5262       3.497755

 
  O1                   hydrogenic:
 
  List of hydrogenic basis orbitals: 
    n    l      effective z      eigenvalue [eV]  inner max. [A]     outer max. [A]     outer radius [A]   
    2    1         1.800000       -11.0118           1.178329           1.178329           5.431529
    3    2         7.600000       -87.3182           0.624002           0.624002           3.540777
    3    0         6.400000       -61.9209           0.061155           1.081688           4.305727
    4    3        11.600000      -114.4238           0.731486           0.731486           3.584329
    3    1         6.200000       -58.1113           0.255630           1.030066           4.305727
    3    2         5.600000       -47.4081           0.847066           0.847066           4.412300
    5    4        17.600000      -168.5799           0.749592           0.749592           3.371799
    1    0         0.750000        -7.6499           0.705145           0.705145           5.431529
    4    3        10.800000       -99.1854           0.787158           0.787158           3.763959
    4    2         4.700000       -18.6841           0.758812           2.365340           5.498337
    2    0         6.800000      -157.2818           0.059678           0.406783           2.739079
    1    0        12.000000     -1959.2197           0.043962           0.043962           0.816563
    1    0        10.000000     -1360.5692           0.052810           0.052810           0.980908
    1    0         6.000000      -489.8049           0.088248           0.088248           1.560915
    2    0        10.000000      -340.1423           0.040357           0.278468           2.093154
    2    1         8.000000      -217.6911           0.265179           0.265179           2.365340
    2    1         6.000000      -122.4512           0.351279           0.351279           2.841399
    3    2         8.000000       -96.7515           0.594223           0.594223           3.455255
 
  Creating atomic-like basis functions for current effective potential.

  Species Ti                  :

  List of atomic basis orbitals and eigenvalues:
    n    l      energy [Ha]    energy [eV]    outer radius [A]
    1    0      -179.959082     -4896.9358       0.490254
    2    0       -19.727662      -536.8170       1.491292
    3    0        -2.283029       -62.1244       4.014314
    4    0        -0.148384        -4.0377       4.592117
    2    1       -16.317278      -444.0157       1.585290
    3    1        -1.409348       -38.3503       4.267343
    3    2        -0.139340        -3.7916       4.536321


  Species O                   :

  List of atomic basis orbitals and eigenvalues:
    n    l      energy [Ha]    energy [eV]    outer radius [A]
    1    0       -18.926989      -515.0296       1.415765
    2    0        -0.880247       -23.9527       4.413171
    2    1        -0.331514        -9.0210       4.522403


  Species O1                  :

  List of atomic basis orbitals and eigenvalues:
    n    l      energy [Ha]    energy [eV]    outer radius [A]
    1    0       -19.443516      -529.0850       1.398286
    2    0        -0.901438       -24.5294       5.047388
    2    1        -0.339232        -9.2310       5.300339

  Assembling full basis from fixed parts.
  | Species Ti :   atomic orbital   1 s accepted.
  | Species Ti :   atomic orbital   2 s accepted.
  | Species Ti :   atomic orbital   3 s accepted.
  | Species Ti :    ionic orbital   4 s accepted.
  | Species Ti :   atomic orbital   4 s accepted.
  | Species Ti :   atomic orbital   2 p accepted.
  | Species Ti :   atomic orbital   3 p accepted.
  | Species Ti :    ionic orbital   4 p accepted.
  | Species Ti :   atomic orbital   3 d accepted.
  | Species Ti :    hydro orbital   3 d accepted.
  | Species Ti :    hydro orbital   4 f accepted.
  | Species O :   atomic orbital   1 s accepted.
  | Species O :    hydro orbital   3 s accepted.
  | Species O :   atomic orbital   2 s accepted.
  | Species O :   atomic orbital   2 p accepted.
  | Species O :    hydro orbital   2 p accepted.
  | Species O :    hydro orbital   3 d accepted.
  | Species O1 :    hydro orbital   1 s accepted.
  | Species O1 :    hydro orbital   1 s accepted.
  | Species O1 :   atomic orbital   1 s accepted.
  | Species O1 :    hydro orbital   1 s accepted.
  | Species O1 :    hydro orbital   2 s accepted.
  | Species O1 :    hydro orbital   2 s accepted.
  | Species O1 :    hydro orbital   3 s accepted.
  | Species O1 :   atomic orbital   2 s accepted.
  | Species O1 :    hydro orbital   1 s accepted.
  | Species O1 :    hydro orbital   2 p accepted.
  | Species O1 :    hydro orbital   2 p accepted.
  | Species O1 :    ionic orbital   2 p accepted.
  | Species O1 :    hydro orbital   3 p accepted.
  | Species O1 :   atomic orbital   2 p accepted.
  | Species O1 :    hydro orbital   2 p accepted.
  | Species O1 :    hydro orbital   3 d accepted.
  | Species O1 :    hydro orbital   3 d accepted.
  | Species O1 :    hydro orbital   3 d accepted.
  | Species O1 :    hydro orbital   4 d accepted.
  | Species O1 :    hydro orbital   4 f accepted.
  | Species O1 :    hydro orbital   4 f accepted.
  | Species O1 :    hydro orbital   5 g accepted.
 
  Basis size parameters after reduction:
  | Total number of radial functions:       39
  | Total number of basis functions :      278
 
  Per-task memory consumption for arrays in subroutine allocate_ext:
  |          13.818032MB.
  Testing on-site integration grid accuracy.
  |  Species  Function  <phi|h_atom|phi> (log., in eV)  <phi|h_atom|phi> (rad., in eV)
           1        1              -4896.9357674450              -4896.9322830202
           1        2               -536.8170048508               -536.8169722333
           1        3                -62.1243896260                -62.1243889283
           1        4                 -3.2653235630                 -3.2692838808
           1        5                  6.7987747276                  6.5460721883 ***
           1        6               -444.0157161949               -444.0157165810
           1        7                -38.3503235548                -38.3503234963
           1        8                  0.2923930877                  0.2745948116
           1        9                 -3.7933400649                 -3.7959244177
           1       10                  6.3288803616                  6.2510614929 ***
           1       11                 27.8451455747                 27.8452636416
           2       12               -515.0295626295               -515.0294562738
           2       13                 15.1698434419                 15.1699322204
           2       14                -21.6038822678                -21.6039118105
           2       15                 -9.0211123393                 -9.0212703513
           2       16                  8.3047696391                  8.2854840999
           2       17                 45.8428042125                 45.8427461222
           3       18               -297.9424497070               -297.9307547196
           3       19               1645.1607047806               1645.2197750528 ***
           3       20               2119.2738154539               2119.3436316296 ***
           3       21               3026.0387037457               3025.6851307742 ***
           3       22               3253.4141389026               3250.3969556326 ***
           3       23               2486.1613909613               2479.9209552638 ***
           3       24                928.4755510298                925.0649415299 ***
           3       25               3217.2880260672               3197.7996070310 ***
           3       26                116.2372337726                115.1951246594 ***
           3       27                 14.1916443797                 14.1916441427
           3       28                100.8973238320                100.8973235935
           3       29                126.7268970011                126.7268978766
           3       30                265.5063129510                265.5063171151
           3       31                164.5864954693                164.5862098674
           3       32                152.6490461408                152.6521897577
           3       33                 50.8372160038                 50.8372160305
           3       34                 88.4076944870                 88.4076906760
           3       35                 82.8810909769                 82.8811630315
           3       36                 36.7178675709                 36.7178927367
           3       37                 85.5654659815                 85.5654660136
           3       38                115.1530221283                115.1530245793
           3       39                142.2669496021                142.2669496201
 * Note: Onsite integrals marked "***" above are less accurate than
 * onsite_accuracy_threshold =    0.03000 eV. Usually, this is harmless.
 * When in doubt, tighten the "radial" and/or "radial_multiplier" flags to check.

  Preparing densities etc. for the partition functions (integrals / Hartree potential).

  Preparations completed.
  max(cpu_time)          :      0.690 s.
  Wall clock time (cpu1) :      0.688 s.
------------------------------------------------------------
  After prepare_scf [GB]:    709.01

  Initializing index lists of integration centers etc. from given atomic structure:
  Mapping all atomic coordinates to central unit cell.

  Initializing the k-points
  Using symmetry for reducing the k-points
  | k-points reduced from:       64 to       36
  | Number of k-points                             :        36
  The eigenvectors in the calculations are COMPLEX.
  | K-points in task   0:         1
  | K-points in task   1:         2
  | K-points in task   2:         2
  | K-points in task   3:         2
  | K-points in task   4:         2
  | K-points in task   5:         1
  | K-points in task   6:         1
  | K-points in task   7:         1
  | K-points in task   8:         1
  | K-points in task   9:         1
  | K-points in task  10:         1
  | K-points in task  11:         1
  | K-points in task  12:         1
  | K-points in task  13:         1
  | K-points in task  14:         1
  | K-points in task  15:         1
  | K-points in task  16:         1
  | K-points in task  17:         1
  | K-points in task  18:         1
  | K-points in task  19:         1
  | K-points in task  20:         1
  | K-points in task  21:         1
  | K-points in task  22:         1
  | K-points in task  23:         1
  | K-points in task  24:         1
  | K-points in task  25:         1
  | K-points in task  26:         1
  | K-points in task  27:         1
  | K-points in task  28:         1
  | K-points in task  29:         1
  | K-points in task  30:         1
  | K-points in task  31:         1
  | Number of basis functions in the Hamiltonian integrals :      4414
  | Number of basis functions in a single unit cell        :       278
  | Number of centers in hartree potential         :      1237
  | Number of centers in hartree multipole         :       591
  | Number of centers in electron density summation:       469
  | Number of centers in basis integrals           :       492
  | Number of centers in integrals                 :       218
  | Number of centers in hamiltonian               :       609
  | Consuming         64 KiB for k_phase.
  | Number of super-cells (origin) [n_cells]                     :         675
  | Number of super-cells (after PM_index) [n_cells]             :         114
  | Number of super-cells in hamiltonian [n_cells_in_hamiltonian]:         114
  | Size of matrix packed + index [n_hamiltonian_matrix_size] :      384096
  After initialize_bc_dependent_lists [GB]:    708.94

------------------------------------------------------------
          Begin self-consistency loop: Initialization.

          Date     :  20241006, Time     :  221308.193
------------------------------------------------------------
  Available memory per node after initialize_hartree_non_periodic_ewald [GB]:    708.94
  | Estimated reciprocal-space cutoff momentum G_max:         1.98911624 bohr^-1 .
  | Reciprocal lattice points for long-range Hartree potential:     348
  Available memory per node after initialize_recip_hartree_potential [GB]:    708.94
  Available memory per node after initialize_scalapack [GB]:    708.94
  Available memory per node after aims_elsi_init_scf [GB]:    708.94
  Available memory per node after initialize_fixed_grids [GB]:    708.94
  Partitioning the integration grid into batches with parallel hashing+maxmin method.
  | Number of batches:      936
  | Maximal batch size:     194
  | Minimal batch size:       7
  | Average batch size:      89.643
  | Standard deviation of batch sizes:      26.648

  Integration load balanced across    32 MPI tasks.
  Work distribution over tasks is as follows:
  Task     0 has       2603 integration points.
  Task     1 has       2619 integration points.
  Task     2 has       2610 integration points.
  Task     3 has       2608 integration points.
  Task     4 has       2597 integration points.
  Task     5 has       2639 integration points.
  Task     6 has       2591 integration points.
  Task     7 has       2593 integration points.
  Task     8 has       2602 integration points.
  Task     9 has       2636 integration points.
  Task    10 has       2631 integration points.
  Task    11 has       2644 integration points.
  Task    12 has       2701 integration points.
  Task    13 has       2631 integration points.
  Task    14 has       2592 integration points.
  Task    15 has       2632 integration points.
  Task    16 has       2641 integration points.
  Task    17 has       2596 integration points.
  Task    18 has       2642 integration points.
  Task    19 has       2646 integration points.
  Task    20 has       2592 integration points.
  Task    21 has       2637 integration points.
  Task    22 has       2648 integration points.
  Task    23 has       2701 integration points.
  Task    24 has       2592 integration points.
  Task    25 has       2621 integration points.
  Task    26 has       2599 integration points.
  Task    27 has       2596 integration points.
  Task    28 has       2627 integration points.
  Task    29 has       2595 integration points.
  Task    30 has       2640 integration points.
  Task    31 has       2604 integration points.
  Available memory per node after partition_grid [GB]:    708.77
  Initializing partition tables, free-atom densities, potentials, etc. across the integration grid (initialize_grid_storage).
  | initialize_grid_storage: Actual outermost partition radius vs. multipole_radius_free
  | (-- VB: in principle, multipole_radius_free should be larger, hence this output)
  | Species        1: Confinement radius =              4.999999999999999 AA, multipole_radius_free =              5.002391649902235 AA.
  | Species        1: outer_partition_radius set to              5.002391649902235 AA .
  | Species        2: Confinement radius =              4.999999999999999 AA, multipole_radius_free =              5.048384829883283 AA.
  | Species        2: outer_partition_radius set to              5.048384829883283 AA .
  | Species        3: Confinement radius =              6.000000000000000 AA, multipole_radius_free =              6.063247693467886 AA.
  | Species        3: outer_partition_radius set to              6.063247693467886 AA .
  | The sparse table of interatomic distances needs       1296.41 kbyte instead of      1936.51 kbyte of memory.
  | Net number of integration points:    83906
  | of which are non-zero points    :    69867
  | Numerical average free-atom electrostatic potential    :     -5.47639938 eV
  Available memory per node after initialize_grid_storage_p1 [GB]:    708.93
  Renormalizing the initial density to the exact electron count on the 3D integration grid.
  | Initial density: Formal number of electrons (from input files) :     144.1000000000
  | Integrated number of electrons on 3D grid     :     144.0997646581
  | Charge integration error                      :      -0.0002353419
  | Normalization factor for density and gradient :       1.0000016332
  Renormalizing the free-atom superposition density to the exact electron count on the 3D integration grid.
  | Formal number of electrons (from input files) :     144.0000000000
  | Integrated number of electrons on 3D grid     :     144.0997646581
  | Charge integration error                      :      -0.0002353419
  | Normalization factor for density and gradient :       1.0000016332
  Obtaining max. number of non-zero basis functions in each batch (get_n_compute_maxes).
  | Maximal number of non-zero basis functions:      820 in task     0
  | Maximal number of non-zero basis functions:      803 in task     1
  | Maximal number of non-zero basis functions:      840 in task     2
  | Maximal number of non-zero basis functions:      843 in task     3
  | Maximal number of non-zero basis functions:      796 in task     4
  | Maximal number of non-zero basis functions:      861 in task     5
  | Maximal number of non-zero basis functions:      836 in task     6
  | Maximal number of non-zero basis functions:      803 in task     7
  | Maximal number of non-zero basis functions:      825 in task     8
  | Maximal number of non-zero basis functions:      831 in task     9
  | Maximal number of non-zero basis functions:      804 in task    10
  | Maximal number of non-zero basis functions:      816 in task    11
  | Maximal number of non-zero basis functions:      820 in task    12
  | Maximal number of non-zero basis functions:      793 in task    13
  | Maximal number of non-zero basis functions:      824 in task    14
  | Maximal number of non-zero basis functions:      820 in task    15
  | Maximal number of non-zero basis functions:      816 in task    16
  | Maximal number of non-zero basis functions:      783 in task    17
  | Maximal number of non-zero basis functions:      791 in task    18
  | Maximal number of non-zero basis functions:      798 in task    19
  | Maximal number of non-zero basis functions:      823 in task    20
  | Maximal number of non-zero basis functions:      824 in task    21
  | Maximal number of non-zero basis functions:      821 in task    22
  | Maximal number of non-zero basis functions:      805 in task    23
  | Maximal number of non-zero basis functions:      811 in task    24
  | Maximal number of non-zero basis functions:      788 in task    25
  | Maximal number of non-zero basis functions:      824 in task    26
  | Maximal number of non-zero basis functions:      826 in task    27
  | Maximal number of non-zero basis functions:      797 in task    28
  | Maximal number of non-zero basis functions:      831 in task    29
  | Maximal number of non-zero basis functions:      776 in task    30
  | Maximal number of non-zero basis functions:      833 in task    31
  Available memory per node after get_n_compute_maxes_p1 [GB]:    708.92
  Initialize hartree_potential_storage
  Max. number of atoms included in rho_multipole:           11

  Evaluating partitioned Hartree potential by multipole expansion.
  | Original multipole sum: apparent total charge =   0.467662E-14
  | Sum of charges compensated after spline to logarithmic grids =   0.000000E+00
  | Analytical far-field extrapolation by fixed multipoles:
  | Hartree multipole sum: apparent total charge =   0.000000E+00
  Summing up the Hartree potential.
  | Ewald reciprocal-space coefficients, myid =     0 : cpu      0.000 s, wall      0.000 s.
  | Ewald reciprocal-space coefficients, myid =     1 : cpu      0.000 s, wall      0.000 s.
  | Ewald reciprocal-space coefficients, myid =     2 : cpu      0.000 s, wall      0.000 s.
  | Ewald reciprocal-space coefficients, myid =     3 : cpu      0.000 s, wall      0.000 s.
  | Ewald reciprocal-space coefficients, myid =     4 : cpu      0.000 s, wall      0.000 s.
  | Ewald reciprocal-space coefficients, myid =     5 : cpu      0.000 s, wall      0.000 s.
  | Ewald reciprocal-space coefficients, myid =     6 : cpu      0.000 s, wall      0.000 s.
  | Ewald reciprocal-space coefficients, myid =     7 : cpu      0.000 s, wall      0.000 s.
  | Ewald reciprocal-space coefficients, myid =     8 : cpu      0.000 s, wall      0.000 s.
  | Ewald reciprocal-space coefficients, myid =     9 : cpu      0.000 s, wall      0.000 s.
  | Ewald reciprocal-space coefficients, myid =    10 : cpu      0.000 s, wall      0.000 s.
  | Ewald reciprocal-space coefficients, myid =    11 : cpu      0.000 s, wall      0.000 s.
  | Ewald reciprocal-space coefficients, myid =    12 : cpu      0.000 s, wall      0.000 s.
  | Ewald reciprocal-space coefficients, myid =    13 : cpu      0.000 s, wall      0.000 s.
  | Ewald reciprocal-space coefficients, myid =    14 : cpu      0.000 s, wall      0.000 s.
  | Ewald reciprocal-space coefficients, myid =    15 : cpu      0.000 s, wall      0.000 s.
  | Ewald reciprocal-space coefficients, myid =    16 : cpu      0.000 s, wall      0.000 s.
  | Ewald reciprocal-space coefficients, myid =    17 : cpu      0.000 s, wall      0.000 s.
  | Ewald reciprocal-space coefficients, myid =    18 : cpu      0.000 s, wall      0.000 s.
  | Ewald reciprocal-space coefficients, myid =    19 : cpu      0.000 s, wall      0.000 s.
  | Ewald reciprocal-space coefficients, myid =    20 : cpu      0.000 s, wall      0.000 s.
  | Ewald reciprocal-space coefficients, myid =    21 : cpu      0.000 s, wall      0.000 s.
  | Ewald reciprocal-space coefficients, myid =    22 : cpu      0.000 s, wall      0.000 s.
  | Ewald reciprocal-space coefficients, myid =    23 : cpu      0.000 s, wall      0.000 s.
  | Ewald reciprocal-space coefficients, myid =    24 : cpu      0.000 s, wall      0.000 s.
  | Ewald reciprocal-space coefficients, myid =    25 : cpu      0.000 s, wall      0.000 s.
  | Ewald reciprocal-space coefficients, myid =    26 : cpu      0.000 s, wall      0.000 s.
  | Ewald reciprocal-space coefficients, myid =    27 : cpu      0.000 s, wall      0.000 s.
  | Ewald reciprocal-space coefficients, myid =    28 : cpu      0.000 s, wall      0.000 s.
  | Ewald reciprocal-space coefficients, myid =    29 : cpu      0.000 s, wall      0.000 s.
  | Ewald reciprocal-space coefficients, myid =    30 : cpu      0.000 s, wall      0.000 s.
  | Ewald reciprocal-space coefficients, myid =    31 : cpu      0.000 s, wall      0.000 s.
  Time summed over all CPUs for potential: real work        0.030 s, elapsed        0.049 s
  | RMS charge density error from multipole expansion :   0.256041E-13
  | Average real-space part of the electrostatic potential :     -0.00000000 eV

  Allocating        0.976 MB for KS_eigenvector_complex
  Available memory per node after allocate_matrices [GB]:    708.91
  Available memory per node after init_comm_sparse_local_matrix_scalapack [GB]:    708.90
  Integrating Hamiltonian matrix: batch-based integration.
  Time summed over all CPUs for integration: real work       10.996 s, elapsed       16.272 s => Consider using load balancing!
  Available memory per node after integrate hamiltonian matrix [GB]:    705.82
  Integrating overlap matrix.
  Time summed over all CPUs for integration: real work        4.078 s, elapsed        7.613 s
  Available memory per node after integrate ovlp matrix [GB]:    705.63
  Available memory per node after ASI_callbacks invoke [GB]:    705.63
  Available memory per node after save_overlap_scalapack [GB]:    705.63

  Updating Kohn-Sham eigenvalues and eigenvectors using ELSI and the (modified) LAPACK eigensolver.
  Singularity check in k-point 32, task 0 (analysis for other k-points/tasks may follow below):
  Overlap matrix is not singular
  | Lowest and highest eigenvalues :  0.1426E-03,  0.8831E+01
  Finished singularity check of overlap matrix
  | Time :     0.016 s
  Starting LAPACK eigensolver
  Finished Cholesky decomposition
  | Time :     0.004 s
  Finished transformation to standard eigenproblem
  | Time :     0.005 s
  Finished solving standard eigenproblem
  | Time :     0.021 s
  Finished back-transformation of eigenvectors
  | Time :     0.001 s

  Obtaining occupation numbers and electronic chemical potential using ELSI.
  | Note that, for insulating systems, the printed 'chemical potential' value is not uniquely defined.
  | It can be anywhere in the energy gap, as long as it correctly separates occupied and unoccupied states.
  | In systems with a gap, the physically relevant chemical potential is the VBM or HOMO.

  | Chemical potential (Fermi level):    -5.28300014 eV
  Available memory per node after advance_KS_solution [GB]:    705.50
  Writing Kohn-Sham eigenvalues.

  Spin-up eigenvalues:
  K-point:       1 at    0.000000    0.000000    0.000000 (in units of recip. lattice)

  State    Occupation    Eigenvalue [Ha]    Eigenvalue [eV]
      1       1.00000        -179.969188        -4897.21078
      2       1.00000        -179.969188        -4897.21077
      3       1.00000        -179.965293        -4897.10479
      4       1.00000        -179.965245        -4897.10349
      5       1.00000         -19.738763         -537.11906
      6       1.00000         -19.738762         -537.11905
      7       1.00000         -19.734501         -537.00309
      8       1.00000         -19.734446         -537.00161
      9       1.00000         -19.551043         -532.01096
     10       1.00000         -19.034838         -517.96430
     11       1.00000         -19.034834         -517.96417
     12       1.00000         -19.034814         -517.96365
     13       1.00000         -19.034694         -517.96039
     14       1.00000         -19.002097         -517.07336
     15       1.00000         -18.959813         -515.92275
     16       1.00000         -16.328416         -444.31881
     17       1.00000         -16.328416         -444.31881
     18       1.00000         -16.328107         -444.31039
     19       1.00000         -16.328096         -444.31009
     20       1.00000         -16.328089         -444.30992
     21       1.00000         -16.328078         -444.30962
     22       1.00000         -16.324187         -444.20373
     23       1.00000         -16.324129         -444.20215
     24       1.00000         -16.323917         -444.19637
     25       1.00000         -16.323910         -444.19620
     26       1.00000         -16.323872         -444.19515
     27       1.00000         -16.323855         -444.19469
     28       1.00000          -2.309310          -62.83953
     29       1.00000          -2.308929          -62.82917
     30       1.00000          -2.299197          -62.56435
     31       1.00000          -2.298887          -62.55589
     32       1.00000          -1.449948          -39.45509
     33       1.00000          -1.446172          -39.35235
     34       1.00000          -1.442571          -39.25435
     35       1.00000          -1.441462          -39.22419
     36       1.00000          -1.440680          -39.20291
     37       1.00000          -1.439493          -39.17060
     38       1.00000          -1.433608          -39.01045
     39       1.00000          -1.430162          -38.91669
     40       1.00000          -1.428223          -38.86393
     41       1.00000          -1.427525          -38.84493
     42       1.00000          -1.426929          -38.82872
     43       1.00000          -1.426720          -38.82302
     44       1.00000          -1.055604          -28.72443
     45       1.00000          -1.047003          -28.49039
     46       1.00000          -1.031666          -28.07305
     47       1.00000          -1.024940          -27.89003
     48       1.00000          -1.006320          -27.38335
     49       1.00000          -0.981904          -26.71896
     50       1.00000          -0.933459          -25.40071
     51       1.00000          -0.574229          -15.62557
     52       1.00000          -0.543225          -14.78192
     53       1.00000          -0.537672          -14.63081
     54       1.00000          -0.531242          -14.45582
     55       1.00000          -0.521629          -14.19424
     56       1.00000          -0.515151          -14.01799
     57       1.00000          -0.503707          -13.70656
     58       1.00000          -0.494400          -13.45331
     59       1.00000          -0.487443          -13.26400
     60       1.00000          -0.486662          -13.24276
     61       1.00000          -0.477351          -12.98939
     62       1.00000          -0.469796          -12.78380
     63       1.00000          -0.458441          -12.47482
     64       1.00000          -0.456731          -12.42827
     65       1.00000          -0.441196          -12.00556
     66       1.00000          -0.434534          -11.82428
     67       1.00000          -0.430674          -11.71925
     68       1.00000          -0.413132          -11.24189
     69       1.00000          -0.399723          -10.87702
     70       1.00000          -0.373009          -10.15010
     71       1.00000          -0.352361           -9.58824
     72       1.00000          -0.234800           -6.38924
     73       0.04145          -0.193696           -5.27074
     74       0.00000          -0.189660           -5.16092
     75       0.00000          -0.179581           -4.88664
     76       0.00000          -0.174673           -4.75309
     77       0.00000          -0.159278           -4.33416
     78       0.00000          -0.155822           -4.24012
     79       0.00000          -0.149839           -4.07732
     80       0.00000          -0.147536           -4.01467
     81       0.00000          -0.145507           -3.95945
     82       0.00000          -0.135736           -3.69356
     83       0.00000          -0.134472           -3.65916
     84       0.00000          -0.134202           -3.65183
     85       0.00000          -0.119372           -3.24829
     86       0.00000          -0.114244           -3.10874
     87       0.00000          -0.086165           -2.34466
     88       0.00000          -0.080133           -2.18054
     89       0.00000          -0.079166           -2.15422
     90       0.00000          -0.043702           -1.18920
     91       0.00000          -0.042489           -1.15619
     92       0.00000          -0.041044           -1.11685
     93       0.00000          -0.034723           -0.94485
     94       0.00000          -0.028341           -0.77119
     95       0.00000          -0.014925           -0.40613
     96       0.00000           0.022696            0.61760
     97       0.00000           0.078229            2.12872
     98       0.00000           0.093357            2.54037
     99       0.00000           0.118343            3.22028
    100       0.00000           0.140077            3.81170
    101       0.00000           0.156606            4.26146
    102       0.00000           0.183474            4.99258
    103       0.00000           0.207784            5.65410
    104       0.00000           0.243903            6.63693
    105       0.00000           0.260181            7.07988
    106       0.00000           0.291613            7.93519
    107       0.00000           0.318040            8.65431
    108       0.00000           0.334573            9.10419
    109       0.00000           0.345074            9.38995
    110       0.00000           0.356283            9.69494
    111       0.00000           0.373660           10.16780
    112       0.00000           0.394313           10.72979
    113       0.00000           0.414788           11.28695
    114       0.00000           0.442176           12.03222
    115       0.00000           0.453192           12.33199

  Spin-down eigenvalues:
  K-point:       1 at    0.000000    0.000000    0.000000 (in units of recip. lattice)

  State    Occupation    Eigenvalue [Ha]    Eigenvalue [eV]
      1       1.00000        -179.969188        -4897.21078
      2       1.00000        -179.969188        -4897.21077
      3       1.00000        -179.965293        -4897.10479
      4       1.00000        -179.965245        -4897.10349
      5       1.00000         -19.738763         -537.11906
      6       1.00000         -19.738762         -537.11905
      7       1.00000         -19.734501         -537.00309
      8       1.00000         -19.734446         -537.00161
      9       1.00000         -19.551043         -532.01096
     10       1.00000         -19.034838         -517.96430
     11       1.00000         -19.034834         -517.96417
     12       1.00000         -19.034814         -517.96365
     13       1.00000         -19.034694         -517.96039
     14       1.00000         -19.002097         -517.07336
     15       1.00000         -18.959813         -515.92275
     16       1.00000         -16.328416         -444.31881
     17       1.00000         -16.328416         -444.31881
     18       1.00000         -16.328107         -444.31039
     19       1.00000         -16.328096         -444.31009
     20       1.00000         -16.328089         -444.30992
     21       1.00000         -16.328078         -444.30962
     22       1.00000         -16.324187         -444.20373
     23       1.00000         -16.324129         -444.20215
     24       1.00000         -16.323917         -444.19637
     25       1.00000         -16.323910         -444.19620
     26       1.00000         -16.323872         -444.19515
     27       1.00000         -16.323855         -444.19469
     28       1.00000          -2.309310          -62.83953
     29       1.00000          -2.308929          -62.82917
     30       1.00000          -2.299197          -62.56435
     31       1.00000          -2.298887          -62.55589
     32       1.00000          -1.449948          -39.45509
     33       1.00000          -1.446172          -39.35235
     34       1.00000          -1.442571          -39.25435
     35       1.00000          -1.441462          -39.22419
     36       1.00000          -1.440680          -39.20291
     37       1.00000          -1.439493          -39.17060
     38       1.00000          -1.433608          -39.01045
     39       1.00000          -1.430162          -38.91669
     40       1.00000          -1.428223          -38.86393
     41       1.00000          -1.427525          -38.84493
     42       1.00000          -1.426929          -38.82872
     43       1.00000          -1.426720          -38.82302
     44       1.00000          -1.055604          -28.72443
     45       1.00000          -1.047003          -28.49039
     46       1.00000          -1.031666          -28.07305
     47       1.00000          -1.024940          -27.89003
     48       1.00000          -1.006320          -27.38335
     49       1.00000          -0.981904          -26.71896
     50       1.00000          -0.933459          -25.40071
     51       1.00000          -0.574229          -15.62557
     52       1.00000          -0.543225          -14.78192
     53       1.00000          -0.537672          -14.63081
     54       1.00000          -0.531242          -14.45582
     55       1.00000          -0.521629          -14.19424
     56       1.00000          -0.515151          -14.01799
     57       1.00000          -0.503707          -13.70656
     58       1.00000          -0.494400          -13.45331
     59       1.00000          -0.487443          -13.26400
     60       1.00000          -0.486662          -13.24276
     61       1.00000          -0.477351          -12.98939
     62       1.00000          -0.469796          -12.78380
     63       1.00000          -0.458441          -12.47482
     64       1.00000          -0.456731          -12.42827
     65       1.00000          -0.441196          -12.00556
     66       1.00000          -0.434534          -11.82428
     67       1.00000          -0.430674          -11.71925
     68       1.00000          -0.413132          -11.24189
     69       1.00000          -0.399723          -10.87702
     70       1.00000          -0.373009          -10.15010
     71       1.00000          -0.352361           -9.58824
     72       1.00000          -0.234800           -6.38924
     73       0.04145          -0.193696           -5.27074
     74       0.00000          -0.189660           -5.16092
     75       0.00000          -0.179581           -4.88664
     76       0.00000          -0.174673           -4.75309
[...]
     24       1.00000         -16.399512         -446.25342
     25       1.00000         -16.392265         -446.05624
     26       1.00000         -16.391596         -446.03802
     27       1.00000         -16.390954         -446.02055
     28       1.00000          -2.399852          -65.30328
     29       1.00000          -2.396697          -65.21745
     30       1.00000          -2.347473          -63.87799
     31       1.00000          -2.339018          -63.64791
     32       1.00000          -1.532786          -41.70923
     33       1.00000          -1.531048          -41.66194
     34       1.00000          -1.525960          -41.52349
     35       1.00000          -1.519363          -41.34398
     36       1.00000          -1.519188          -41.33921
     37       1.00000          -1.516057          -41.25402
     38       1.00000          -1.476735          -40.18399
     39       1.00000          -1.472406          -40.06621
     40       1.00000          -1.471290          -40.03585
     41       1.00000          -1.467727          -39.93889
     42       1.00000          -1.465895          -39.88904
     43       1.00000          -1.460202          -39.73411
     44       1.00000          -1.000828          -27.23391
     45       1.00000          -0.955387          -25.99741
     46       1.00000          -0.932395          -25.37175
     47       1.00000          -0.906363          -24.66338
     48       1.00000          -0.866893          -23.58936
     49       1.00000          -0.828483          -22.54418
     50       1.00000          -0.824760          -22.44286
     51       1.00000          -0.509991          -13.87755
     52       1.00000          -0.482674          -13.13424
     53       1.00000          -0.473369          -12.88103
     54       1.00000          -0.464138          -12.62984
     55       1.00000          -0.460101          -12.51999
     56       1.00000          -0.453385          -12.33723
     57       1.00000          -0.431438          -11.74004
     58       1.00000          -0.417422          -11.35864
     59       1.00000          -0.410929          -11.18196
     60       1.00000          -0.402446          -10.95111
     61       1.00000          -0.387380          -10.54116
     62       1.00000          -0.357166           -9.71899
     63       1.00000          -0.344382           -9.37110
     64       1.00000          -0.318213           -8.65901
     65       1.00000          -0.318201           -8.65868
     66       1.00000          -0.308192           -8.38633
     67       1.00000          -0.302656           -8.23569
     68       1.00000          -0.291655           -7.93632
     69       1.00000          -0.290415           -7.90259
     70       0.99999          -0.266620           -7.25509
     71       0.76658          -0.262031           -7.13022
     72       0.04368          -0.258864           -7.04405
     73       0.00000          -0.254187           -6.91678
     74       0.00000          -0.248422           -6.75991
     75       0.00000          -0.232795           -6.33469
     76       0.00000          -0.227168           -6.18157
     77       0.00000          -0.221508           -6.02754
     78       0.00000          -0.215144           -5.85438
     79       0.00000          -0.214045           -5.82447
     80       0.00000          -0.195113           -5.30931
     81       0.00000          -0.186912           -5.08613
     82       0.00000          -0.169279           -4.60633
     83       0.00000          -0.160496           -4.36733
     84       0.00000          -0.151457           -4.12135
     85       0.00000          -0.150914           -4.10657
     86       0.00000          -0.138844           -3.77813
     87       0.00000          -0.130356           -3.54716
     88       0.00000          -0.107143           -2.91551
     89       0.00000          -0.104332           -2.83902
     90       0.00000          -0.087907           -2.39208
     91       0.00000          -0.071307           -1.94036
     92       0.00000          -0.024271           -0.66046
     93       0.00000          -0.021749           -0.59181
     94       0.00000          -0.019195           -0.52232
     95       0.00000          -0.015305           -0.41648
     96       0.00000           0.064159            1.74587
     97       0.00000           0.075036            2.04182
     98       0.00000           0.103526            2.81709
     99       0.00000           0.136363            3.71062
    100       0.00000           0.161699            4.40006
    101       0.00000           0.211459            5.75409
    102       0.00000           0.238810            6.49835
    103       0.00000           0.249615            6.79236
    104       0.00000           0.252609            6.87383
    105       0.00000           0.279936            7.61744
    106       0.00000           0.304427            8.28388
    107       0.00000           0.317022            8.62660
    108       0.00000           0.331786            9.02836
    109       0.00000           0.353968            9.63195
    110       0.00000           0.364230            9.91119
    111       0.00000           0.376463           10.24407
    112       0.00000           0.394013           10.72164
    113       0.00000           0.435239           11.84344
    114       0.00000           0.441658           12.01812
    115       0.00000           0.443421           12.06610

  Current spin moment of the entire structure :
  | N = N_up - N_down (sum over all k points):         0.00001
  | S (sum over all k points)                :         0.00000

  What follows are estimated values for band gap, HOMO, LUMO, etc.
  | They are estimated on a discrete k-point grid and not necessarily exact.
  | For converged numbers, create a DOS and/or band structure plot on a denser k-grid.

  Highest occupied state (VBM) at     -7.10752727 eV (relative to internal zero)
  | Occupation number:      0.53420445
  | K-point:      29 at    0.500000    0.500000    0.000000 (in units of recip. lattice)
  | Spin channel:        2

  Lowest unoccupied state (CBM) at    -7.09902802 eV (relative to internal zero)
  | Occupation number:      0.43858721
  | K-point:      28 at    0.500000    0.375000    0.000000 (in units of recip. lattice)
  | Spin channel:        1

  ESTIMATED overall HOMO-LUMO gap:      0.00849926 eV between HOMO at k-point 29 and LUMO at k-point 28
  | This appears to be an indirect band gap.
  | Smallest direct gap :      0.02916715 eV for k_point 23 at    0.500000    0.000000    0.000000 (in units of recip. lattice)
  | Direct gap HOMO spin channel :     2
  | Direct gap LUMO spin channel :     1
  However, this system has fractional occupation numbers. Since we use a finite k-point grid,
  this material is metallic within the approximate finite broadening function (occupation_type)
  applied to determine the occupation numbers.

  | Chemical Potential                          :    -7.10449226 eV
  | Note that, for insulating systems, the printed 'chemical potential' value is not uniquely defined.
  | It can be anywhere in the energy gap, as long as it correctly separates occupied and unoccupied states.
  | In systems with a gap, the physically relevant chemical potential is the VBM or HOMO.

  Self-consistency cycle converged.


------------------------------------------------------------
  End self-consistency iteration #   325       :  max(cpu_time)    wall_clock(cpu1)
  | Time for this iteration                     :        1.294 s           1.294 s
  | Charge density update                       :        0.000 s           0.000 s
  | Density mixing                              :        0.542 s           0.542 s
  | Hartree multipole update                    :        0.002 s           0.002 s
  | Hartree multipole summation                 :        0.109 s           0.108 s
  | Integration                                 :        0.511 s           0.511 s
  | Solution of K.-S. eqns.                     :        0.128 s           0.128 s
  | Total energy evaluation                     :        0.000 s           0.001 s

  Partial memory accounting:
  | Current value for overall tracked memory usage:
  |   Minimum:       14.178 MB (on task  6)
  |   Maximum:       15.184 MB (on task  1)
  |   Average:       14.334 MB
  | Peak value for overall tracked memory usage:
  |   Minimum:       27.385 MB (on task 30 after allocating KS_scaled_cmplx)
  |   Maximum:       29.748 MB (on task  3 after allocating KS_scaled_cmplx)
  |   Average:       28.311 MB
  | Largest tracked array allocation so far:
  |   Minimum:        5.861 MB (hamiltonian on task  0)
  |   Maximum:        5.861 MB (hamiltonian on task  0)
  |   Average:        5.861 MB
  Note:  These values currently only include a subset of arrays which are explicitly tracked.
  The "true" memory usage will be greater.
------------------------------------------------------------
  Writing periodic restart information to file restart000

  Energy and forces in a compact form:
  | Total energy uncorrected      :         -0.107601852890367E+06 eV
  | Total energy corrected        :         -0.107601865926297E+06 eV  <-- do not rely on this value for anything but (periodic) metals
  | Electronic free energy        :         -0.107601878962228E+06 eV

  ------------------------------------ 
  Start decomposition of the XC Energy 
  ------------------------------------ 
  X and C from original XC functional choice 
  Hartree-Fock Energy :          0.000000000 Ha              0.000000000 eV
  X Energy            :       -222.801867106 Ha          -6062.747273138 eV
  C Energy            :         -5.675176157 Ha           -154.429400520 eV
  XC Energy w/o HF    :       -228.477043263 Ha          -6217.176673657 eV
  Total XC Energy     :       -228.477043263 Ha          -6217.176673657 eV
  ------------------------------------ 
  LDA X and C from self-consistent density 
  X Energy LDA        :       -206.860976607 Ha          -5628.973572492 eV
  C Energy LDA        :        -11.148193242 Ha           -303.357772795 eV
  ------------------------------------ 
  End decomposition of the XC Energy 
  ------------------------------------ 

------------------------------------------------------------

  ------------------------------------------------------------
                   Starting Mulliken Analysis
  ------------------------------------------------------------

  Performing Mulliken charge analysis on all atoms.
  Full analysis will be written to separate file 'Mulliken.out'.
  Summary of the per-atom charge analysis:
  |
  |  atom       electrons          charge             l=0             l=1             l=2             l=3             l=4
  |     1       21.389459        0.610541        6.486859       12.443995        2.407049        0.051555
  |     2       21.509837        0.490163        6.585381       12.464043        2.403668        0.056745
  |     3        8.238273       -0.138273        3.771334        4.546635       -0.087909        0.007436        0.000776
  |     4        8.582878       -0.582878        3.852738        4.716916        0.013224
  |     5        8.643872       -0.643872        3.844469        4.788406        0.010998
  |     6        8.620381       -0.620381        3.847923        4.762232        0.010226
  |     7       20.881697        1.118303        6.035222       12.495189        2.211419        0.139867
  |     8       20.999976        1.000024        6.062905       12.528084        2.267191        0.141797
  |     9        8.612724       -0.612724        3.851143        4.751311        0.010270
  |    10        8.357784       -0.357784        3.893672        4.452236        0.011876
  |    11        8.163119       -0.163119        3.950507        4.206045        0.006567
  |
  | Total      144.000000        0.100000
 
  Summary of the per-atom spin analysis:
  |
  |  atom   spin      l=0         l=1         l=2         l=3         l=4
  |     1    0.000003    0.000000    0.000000    0.000003    0.000000
  |     2    0.000007    0.000000    0.000001    0.000006    0.000000
  |     3    0.000000    0.000000   -0.000000    0.000000    0.000000    0.000000
  |     4    0.000000    0.000000    0.000000    0.000000
  |     5   -0.000000   -0.000000   -0.000000    0.000000
  |     6   -0.000000    0.000000   -0.000000   -0.000000
  |     7   -0.000000   -0.000000   -0.000000    0.000000   -0.000000
  |     8   -0.000000   -0.000000   -0.000000    0.000000   -0.000000
  |     9   -0.000000    0.000000   -0.000000   -0.000000
  |    10    0.000000   -0.000000    0.000000   -0.000000
  |    11   -0.000005   -0.000000   -0.000005   -0.000000
  |
  | Total    0.000006
 
  Writing Mulliken decomposition to disk ...

  Mulliken analysis                                       :  max(cpu_time)    wall_clock(cpu1)
  | Time for Mulliken analysis                            :          0.979               0.979
  | Total time for Mulliken analysis                      :          0.979               0.979
------------------------------------------------------------

------------------------------------------------------------------------------
  Final output of selected total energy values:

  The following output summarizes some interesting total energy values
  at the end of a run (AFTER all relaxation, molecular dynamics, etc.).

  | Total energy of the DFT / Hartree-Fock s.c.f. calculation      :        -107601.852890367 eV
  | Final zero-broadening corrected energy (caution - metals only) :        -107601.865926297 eV
  | For reference only, the value of 1 Hartree used in FHI-aims is :             27.211384500 eV
  | For reference only, the overall average (free atom contribution
  | + realspace contribution) of the electrostatic potential after
  | s.c.f. convergence is                                          :             -5.391062239 eV

  Before relying on these values, please be sure to understand exactly which
  total energy value is referred to by a given number. Different objects may
  all carry the same name 'total energy'. Definitions:

  Total energy of the DFT / Hartree-Fock s.c.f. calculation:
  | Note that this energy does not include ANY quantities calculated after the
  | s.c.f. cycle, in particular not ANY RPA, MP2, etc. many-body perturbation terms.

  Final zero-broadening corrected energy:
  | For metallic systems only, a broadening of the occupation numbers at the Fermi
  | level can be extrapolated back to zero broadening by an electron-gas inspired
  | formula. For all systems that are not real metals, this value can be
  | meaningless and should be avoided.

------------------------------------------------------------------------------
  Methods described in the following list of references were used in this FHI-aims run.
  If you publish the results, please make sure to cite these reference if they apply.
  FHI-aims is an academic code, and for our developers (often, Ph.D. students
  and postdocs), scientific credit in the community is essential.
  Thank you for helping us!

  For any use of FHI-aims, please cite:

    Volker Blum, Ralf Gehrke, Felix Hanke, Paula Havu, Ville Havu,
    Xinguo Ren, Karsten Reuter, and Matthias Scheffler
    'Ab initio molecular simulations with numeric atom-centered orbitals'
    Computer Physics Communications 180, 2175-2196 (2009)
    http://doi.org/10.1016/j.cpc.2009.06.022


  The provided symmetry information was generated with SPGlib:

    Atsushi Togo, Yusuke Seto, Dimitar Pashov
    SPGlib 1.7.3 obtained from http://spglib.sourceforge.net
    Licence: New BSD license
    Copyright (C) 2008 Atsushi Togo


  The ELSI infrastructure was used in your run to solve the Kohn-Sham electronic structure.
  Please check out https://wordpress.elsi-interchange.org to learn more.
  If scalability is important for your project, please acknowledge ELSI by citing:

    V. W-z. Yu, F. Corsetti, A. Garcia, W. P. Huhn, M. Jacquelin, W. Jia,
    B. Lange, L. Lin, J. Lu, W. Mi, A. Seifitokaldani, A. Vazquez-Mayagoitia,
    C. Yang, H. Yang, and V. Blum
    'ELSI: A unified software interface for Kohn-Sham electronic structure solvers'
    Computer Physics Communications 222, 267-285 (2018).
    http://doi.org/10.1016/j.cpc.2017.09.007


  For the real-space grid partitioning and parallelization used in this calculation, please cite:

    Ville Havu, Volker Blum, Paula Havu, and Matthias Scheffler,
    'Efficient O(N) integration for all-electron electronic structure calculation'
    'using numerically tabulated basis functions'
    Journal of Computational Physics 228, 8367-8379 (2009).
    http://doi.org/10.1016/j.jcp.2009.08.008

  Of course, there are many other important community references, e.g., those cited in the
  above references. Our list is limited to references that describe implementations in the
  FHI-aims code. The reason is purely practical (length of this list) - please credit others as well.

   One or more s.c.f. cycles took more than 50 s.c.f. iterations.
   It might be worth adjusting your convergence settings. For example,
   metals need a larger broadening and a smaller "charge_mix_param" value than semiconductors.

------------------------------------------------------------
          Leaving FHI-aims.
          Date     :  20241006, Time     :  222619.193

          Computational steps:
          | Number of self-consistency cycles          :          325
          | Number of SCF (re)initializations          :            1

          Detailed time accounting                     :  max(cpu_time)    wall_clock(cpu1)
          | Total time                                  :      791.771 s         791.799 s
          | Preparation time                            :        0.690 s           0.688 s
          | Boundary condition initalization            :        0.052 s           0.052 s
          | Grid partitioning                           :        0.083 s           0.082 s
          | Preloading free-atom quantities on grid     :        0.238 s           0.239 s
          | Free-atom superposition energy              :        0.027 s           0.026 s
          | Total time for integrations                 :      165.746 s         165.753 s
          | Total time for solution of K.-S. equations  :       41.249 s          41.255 s
          | Total time for density update               :      377.969 s         377.986 s
          | Total time for mixing & preconditioning     :      169.837 s         169.843 s
          | Total time for Hartree multipole update     :        0.683 s           0.683 s
          | Total time for Hartree multipole sum        :       33.623 s          33.619 s
          | Total time for total energy evaluation      :        0.132 s           0.190 s
          | Total time for scaled ZORA corrections      :        0.000 s           0.000 s
          | Total time for Mulliken analysis            :        0.979 s           0.979 s

          Partial memory accounting:
          | Residual value for overall tracked memory usage across tasks:     0.000000 MB (should be 0.000000 MB)
          | Peak values for overall tracked memory usage:
          |   Minimum:       27.385 MB (on task 30 after allocating KS_scaled_cmplx)
          |   Maximum:       29.748 MB (on task  3 after allocating KS_scaled_cmplx)
          |   Average:       28.311 MB
          | Largest tracked array allocation:
          |   Minimum:        5.861 MB (hamiltonian on task  0)
          |   Maximum:        5.861 MB (hamiltonian on task  0)
          |   Average:        5.861 MB
          Note:  These values currently only include a subset of arrays which are explicitly tracked.
          The "true" memory usage will be greater.

          Have a nice day.
------------------------------------------------------------
