------------------------------------------------------------
          Invoking FHI-aims ...

          When using FHI-aims, please cite the following reference:

            Volker Blum, Ralf Gehrke, Felix Hanke, Paula Havu,
            Ville Havu, Xinguo Ren, Karsten Reuter, and Matthias Scheffler,
            'Ab Initio Molecular Simulations with Numeric Atom-Centered Orbitals',
            Computer Physics Communications 180, 2175-2196 (2009)

          In addition, many other developments in FHI-aims are likely important for
          your particular application. If so, please cite them. A partial list of references
          is written at the end of this file. Thank you for giving credit to the authors
          of these developments.

          For general information about FHI-aims please find us at

            https://fhi-aims.org

          Online tutorials can be found at

            https://fhi-aims-club.gitlab.io/tutorials/tutorials-overview/

          For any questions about FHI-aims, please visit our slack channel at

            https://fhi-aims.slack.com

          and our main development and support site at

            https://aims-git.rz-berlin.mpg.de .

          The latter site, in particular, has a wiki to collect information, as well
          as an issue tracker to log discussions, suggest improvements, and report issues
          or bugs. https://aims-git.rz-berlin.mpg.de is also the main development site
          of the project and all new and updated code versions can be obtained there.
          Please send an email to aims-coordinators@fhi-berlin.mpg.de and we will add
          you to these sites. They are for you and everyone is welcome there.

------------------------------------------------------------



  Date     :  20250312, Time     :  111028.241
  Time zero on CPU 1             :   0.617257000000000E+00  s.
  Internal wall clock time zero  :           511009828.241  s.

  FHI-aims created a unique identifier for this run for later identification
  aims_uuid : 104016B1-0235-4076-A2BB-5CAE9D9B47AD

  Build configuration of the current instance of FHI-aims
  -------------------------------------------------------
  FHI-aims version      : 240605
  Commit number         : b001b2e18
  CMake host system     : Linux-6.5.0-41-generic
  CMake version         : 3.22.1
  Fortran compiler      : /opt/intel/oneapi/mpi/2021.12/bin/mpiifort (IntelLLVM) version 2024.1.0
  Fortran compiler flags: -fc=ifx -O3 -ip -fp-model precise
  C compiler            : /opt/intel/oneapi/mpi/2021.12/bin/mpiicc (IntelLLVM) version 2024.1.0
  C compiler flags      : -cc=icx -O3 -ip -fp-model precise -std=gnu99
  C++ compiler          : /opt/intel/oneapi/mpi/2021.12/bin/mpiicpc (IntelLLVM) version 2024.1.0
  C++ compiler flags    : -cxx=icpx -O3 -ip -fp-model precise -std=c++11
  HIP compiler          :
  HIP compiler flags    :
  HIP GPU arch          :
  Using MPI
  Using ScaLAPACK
  Using LibXC
  Using i-PI
  Using RLSY
  Linking against: /opt/intel/oneapi/mkl/2024.1/lib/intel64/libmkl_intel_lp64.so
                   /opt/intel/oneapi/mkl/2024.1/lib/intel64/libmkl_sequential.so
                   /opt/intel/oneapi/mkl/2024.1/lib/intel64/libmkl_core.so
                   /opt/intel/oneapi/mkl/2024.1/lib/intel64/libmkl_blacs_intelmpi_lp64.so
                   /opt/intel/oneapi/mkl/2024.1/lib/intel64/libmkl_scalapack_lp64.so
                   /opt/intel/oneapi/mkl/2024.1/lib/intel64/libmkl_core.so

  Using       64 parallel tasks.
  Task        0 on host RSL-arvutus reporting.
  Task        1 on host RSL-arvutus reporting.
  Task        2 on host RSL-arvutus reporting.
  Task        3 on host RSL-arvutus reporting.
  Task        4 on host RSL-arvutus reporting.
  Task        5 on host RSL-arvutus reporting.
  Task        6 on host RSL-arvutus reporting.
  Task        7 on host RSL-arvutus reporting.
  Task        8 on host RSL-arvutus reporting.
  Task        9 on host RSL-arvutus reporting.
  Task       10 on host RSL-arvutus reporting.
  Task       11 on host RSL-arvutus reporting.
  Task       12 on host RSL-arvutus reporting.
  Task       13 on host RSL-arvutus reporting.
  Task       14 on host RSL-arvutus reporting.
  Task       15 on host RSL-arvutus reporting.
  Task       16 on host RSL-arvutus reporting.
  Task       17 on host RSL-arvutus reporting.
  Task       18 on host RSL-arvutus reporting.
  Task       19 on host RSL-arvutus reporting.
  Task       20 on host RSL-arvutus reporting.
  Task       21 on host RSL-arvutus reporting.
  Task       22 on host RSL-arvutus reporting.
  Task       23 on host RSL-arvutus reporting.
  Task       24 on host RSL-arvutus reporting.
  Task       25 on host RSL-arvutus reporting.
  Task       26 on host RSL-arvutus reporting.
  Task       27 on host RSL-arvutus reporting.
  Task       28 on host RSL-arvutus reporting.
  Task       29 on host RSL-arvutus reporting.
  Task       30 on host RSL-arvutus reporting.
  Task       31 on host RSL-arvutus reporting.
  Task       32 on host RSL-arvutus reporting.
  Task       33 on host RSL-arvutus reporting.
  Task       34 on host RSL-arvutus reporting.
  Task       35 on host RSL-arvutus reporting.
  Task       36 on host RSL-arvutus reporting.
  Task       37 on host RSL-arvutus reporting.
  Task       38 on host RSL-arvutus reporting.
  Task       39 on host RSL-arvutus reporting.
  Task       40 on host RSL-arvutus reporting.
  Task       41 on host RSL-arvutus reporting.
  Task       42 on host RSL-arvutus reporting.
  Task       43 on host RSL-arvutus reporting.
  Task       44 on host RSL-arvutus reporting.
  Task       45 on host RSL-arvutus reporting.
  Task       46 on host RSL-arvutus reporting.
  Task       47 on host RSL-arvutus reporting.
  Task       48 on host RSL-arvutus reporting.
  Task       49 on host RSL-arvutus reporting.
  Task       50 on host RSL-arvutus reporting.
  Task       51 on host RSL-arvutus reporting.
  Task       52 on host RSL-arvutus reporting.
  Task       53 on host RSL-arvutus reporting.
  Task       54 on host RSL-arvutus reporting.
  Task       55 on host RSL-arvutus reporting.
  Task       56 on host RSL-arvutus reporting.
  Task       57 on host RSL-arvutus reporting.
  Task       58 on host RSL-arvutus reporting.
  Task       59 on host RSL-arvutus reporting.
  Task       60 on host RSL-arvutus reporting.
  Task       61 on host RSL-arvutus reporting.
  Task       62 on host RSL-arvutus reporting.
  Task       63 on host RSL-arvutus reporting.

  Memory overcommitment is allowed on your operating system.

  Obtaining array dimensions for all initial allocations:
  
  -----------------------------------------------------------------------
  Parsing control.in (first pass over file, find array dimensions only).
  The contents of control.in will be repeated verbatim below
  unless switched off by setting 'verbatim_writeout .false.' .
  in the first line of control.in .
  -----------------------------------------------------------------------
  
    xc              pbe
    relativistic    zora scalar 1.0e-12
    k_grid          2 2 1
  
    charge	  1.0
    output          Mulliken
  
  
  ################################################################################
  #
  #  FHI-aims code project
  #  VB, Fritz-Haber Institut, 2009
  #
  #  Suggested "light" defaults for Ti atom (to be pasted into control.in file)
  #  Be sure to double-check any results obtained with these settings for post-processing,
  #  e.g., with the "tight" defaults and larger basis sets.
  #
  ################################################################################
    species        Ti
  #     global species definitions
      nucleus             22
      mass                47.867
  #
      l_hartree           4
  #
      cut_pot             3.5          1.5  1.0
      basis_dep_cutoff    1e-4
  #
      radial_base         48 5.0
      radial_multiplier   1
      angular_grids       specified
        division   0.5171   50
        division   0.9824  110
        division   1.2917  194
        division   1.4940  302
  #      division   1.6934  434
  #      division   1.8425  590
  #      division   2.1901  770
  #      division   2.2896  974
  #      division   2.8244 1202
  #      outer_grid  974
        outer_grid  302
  ################################################################################
  #
  #  Definition of "minimal" basis
  #
  ################################################################################
  #     valence basis states
      valence      4  s   2.
      valence      3  p   6.
      valence      3  d   2.
  #     ion occupancy
      ion_occ      4  s   1.
      ion_occ      3  p   6.
      ion_occ      3  d   1.
  ################################################################################
  #
  #  Suggested additional basis functions. For production calculations,
  #  uncomment them one after another (the most important basis functions are
  #  listed first).
  #
  #  Constructed for dimers: 1.6 A, 1.85 A, 2.5 A, 3.25 A, 4.25 A
  #
  ################################################################################
  #  "First tier" - improvements: -396.25 meV to -19.41 meV
       hydro 4 f 8
       hydro 3 d 2.7
       ionic 4 p auto
  #     hydro 5 g 11.6
       ionic 4 s auto
  #  "Second tier" - improvements: -16.30 meV to -2.03 meV
  #     hydro 3 d 4.4
  #     hydro 6 h 16
  #     hydro 4 f 9.4
  #     hydro 4 p 4.5
  #     hydro 1 s 0.5
  #  "Third tier" - improvements: -6.28 meV to -0.37 meV
  #     hydro 4 d 6.4
  #     hydro 4 f 10
  #     hydro 5 g 12
  #     hydro 2 p 1.7
  #     hydro 6 h 16.4
  #     hydro 4 s 3.8
  #  Further basis functions: -0.45 meV and smaller improvements
  #     hydro 3 d 8.8
  #     hydro 5 p 18
  #     hydro 4 f 22.4
  #     hydro 5 f 7.2  # -0.16 meV
  #     hydro 3 d 2.1  # -0.11 meV
  #     hydro 5 g 7.4  # -0.09 meV
  
  
  ################################################################################
  #
  #  FHI-aims code project
  #  VB, Fritz-Haber Institut, 2009
  #
  #  Suggested "light" defaults for O atom (to be pasted into control.in file)
  #  Be sure to double-check any results obtained with these settings for post-processing,
  #  e.g., with the "tight" defaults and larger basis sets.
  #
  ################################################################################
    species        O
  #     global species definitions
      nucleus             8
      mass                15.9994
  #
      l_hartree           4
  #
      cut_pot             3.5  1.5  1.0
      basis_dep_cutoff    1e-4
  #
      radial_base         36 5.0
      radial_multiplier   1
       angular_grids specified
        division   0.2659   50
        division   0.4451  110
        division   0.6052  194
        division   0.7543  302
  #      division   0.8014  434
  #      division   0.8507  590
  #      division   0.8762  770
  #      division   0.9023  974
  #      division   1.2339 1202
  #      outer_grid 974
        outer_grid 302
  ################################################################################
  #
  #  Definition of "minimal" basis
  #
  ################################################################################
  #     valence basis states
      valence      2  s   2.
      valence      2  p   4.
  #     ion occupancy
      ion_occ      2  s   1.
      ion_occ      2  p   3.
  ################################################################################
  #
  #  Suggested additional basis functions. For production calculations,
  #  uncomment them one after another (the most important basis functions are
  #  listed first).
  #
  #  Constructed for dimers: 1.0 A, 1.208 A, 1.5 A, 2.0 A, 3.0 A
  #
  ################################################################################
  #  "First tier" - improvements: -699.05 meV to -159.38 meV
       hydro 2 p 1.8
       hydro 3 d 7.6
       hydro 3 s 6.4
  #  "Second tier" - improvements: -49.91 meV to -5.39 meV
  #     hydro 4 f 11.6
  #     hydro 3 p 6.2
  #     hydro 3 d 5.6
  #     hydro 5 g 17.6
  #     hydro 1 s 0.75
  #  "Third tier" - improvements: -2.83 meV to -0.50 meV
  #     ionic 2 p auto
  #     hydro 4 f 10.8
  #     hydro 4 d 4.7
  #     hydro 2 s 6.8
  #  "Fourth tier" - improvements: -0.40 meV to -0.12 meV
  #     hydro 3 p 5
  #     hydro 3 s 3.3
  #     hydro 5 g 15.6
  #     hydro 4 f 17.6
  #     hydro 4 d 14
  # Further basis functions - -0.08 meV and below
  #     hydro 3 s 2.1
  #     hydro 4 d 11.6
  #     hydro 3 p 16
  #     hydro 2 s 17.2
  ################################################################################
  #
  #  FHI-aims code project
  #  VB, Fritz-Haber Institut, 2009
  #
  #  Suggested "light" defaults for F atom (to be pasted into control.in file)
  #  Be sure to double-check any results obtained with these settings for post-processing,
  #  e.g., with the "tight" defaults and larger basis sets.
  #
  ################################################################################
    species        F
  #     global species definitions
      nucleus             9
      mass                18.9984032
  #
      l_hartree           4
  #
      cut_pot             3.5  1.5  1.0
      basis_dep_cutoff    1e-4
  #
      radial_base         37 5.0
      radial_multiplier   1
      angular_grids specified
        division   0.4014  110
        division   0.5291  194
        division   0.6019  302
  #      division   0.6814  434
  #      division   0.7989  590
  #      division   0.8965  770
  #      division   1.3427  974
  #      outer_grid   974
        outer_grid   302
  ################################################################################
  #
  #  Definition of "minimal" basis
  #
  ################################################################################
  #     valence basis states
      valence      2  s   2.
      valence      2  p   5.
  #     ion occupancy
      ion_occ      2  s   1.
      ion_occ      2  p   4.
  ################################################################################
  #
  #  Suggested additional basis functions. For production calculations,
  #  uncomment them one after another (the most important basis functions are
  #  listed first).
  #
  #  Constructed for dimers: 1.2 A, 1.418 A, 1.75 A, 2.25 A, 3.25 A
  #
  ################################################################################
  #  "First tier" - improvements: -149.44 meV to -45.88 meV
       hydro 2 p 1.7
       hydro 3 d 7.4
       hydro 3 s 6.8
  #  "Second tier" - improvements: -12.96 meV to -1.56 meV
  #     hydro 4 f 11.2
  #     ionic 2 p auto
  #     hydro 1 s 0.75
  #     hydro 4 d 8.8
  #     hydro 5 g 16.8
  #  "Third tier" - improvements: -0.58 meV to -0.05 meV
  #     hydro 3 p 6.2
  #     hydro 3 s 3.2
  #     hydro 4 f 9.6
  #     hydro 3 s 19.6
  #     hydro 4 d 8.6
  #     hydro 5 g 14.4
  # Further basis functions: -0.05 meV and below
  #     hydro 3 p 4.2
  ################################################################################
  #
  #  FHI-aims code project
  #  VB, Fritz-Haber Institut, 2009
  #
  #  Suggested "light" defaults for H atom (to be pasted into control.in file)
  #  Be sure to double-check any results obtained with these settings for post-processing,
  #  e.g., with the "tight" defaults and larger basis sets.
  #
  ################################################################################
    species        H
  #     global species definitions
      nucleus             1
      mass                1.00794
  #
      l_hartree           4
  #
      cut_pot             3.5  1.5  1.0
      basis_dep_cutoff    1e-4
  #
      radial_base         24 5.0
      radial_multiplier   1
      angular_grids       specified
        division   0.2421   50
        division   0.3822  110
        division   0.4799  194
        division   0.5341  302
  #      division   0.5626  434
  #      division   0.5922  590
  #      division   0.6542  770
  #      division   0.6868 1202
  #      outer_grid  770
        outer_grid  302
  ################################################################################
  #
  #  Definition of "minimal" basis
  #
  ################################################################################
  #     valence basis states
      valence      1  s   1.
  #     ion occupancy
      ion_occ      1  s   0.5
  ################################################################################
  #
  #  Suggested additional basis functions. For production calculations,
  #  uncomment them one after another (the most important basis functions are
  #  listed first).
  #
  #  Basis constructed for dimers: 0.5 A, 0.7 A, 1.0 A, 1.5 A, 2.5 A
  #
  ################################################################################
  #  "First tier" - improvements: -1014.90 meV to -62.69 meV
       hydro 2 s 2.1
       hydro 2 p 3.5
  #  "Second tier" - improvements: -12.89 meV to -1.83 meV
  #     hydro 1 s 0.85
  #     hydro 2 p 3.7
  #     hydro 2 s 1.2
  #     hydro 3 d 7
  #  "Third tier" - improvements: -0.25 meV to -0.12 meV
  #     hydro 4 f 11.2
  #     hydro 3 p 4.8
  #     hydro 4 d 9
  #     hydro 3 s 3.2
  
  -----------------------------------------------------------------------
  Completed first pass over input file control.in .
  -----------------------------------------------------------------------
  
  
  -----------------------------------------------------------------------
  Parsing geometry.in (first pass over file, find array dimensions only).
  The contents of geometry.in will be repeated verbatim below
  unless switched off by setting 'verbatim_writeout .false.' .
  in the first line of geometry.in .
  -----------------------------------------------------------------------
  
  lattice_vector 26.264506 0.000000 0.000000
  lattice_vector 0.000000 23.783061 0.000000
  lattice_vector 0.000000 0.000000 87.213082
  
  atom 6.566086 0.000000 30.947200 O
  atom 2.006317 1.486441 32.223938 O
  atom 3.283046 0.000000 32.223967 Ti
  atom 6.566109 1.486441 32.223967 Ti
  atom 4.559775 1.486441 32.223996 O
  atom 0.000005 0.000000 33.500734 O
  atom 3.283006 0.000000 34.230436 O
  atom 5.289362 1.486441 35.507173 O
  atom 6.566091 0.000000 35.507202 Ti
  atom 3.283028 1.486441 35.507202 Ti
  atom 1.276694 1.486441 35.507232 O
  atom 3.283051 0.000000 36.783969 O
  atom 6.566051 0.000000 37.513671 O
  atom 2.006281 1.486441 38.790408 O
  atom 3.283010 0.000000 38.790438 Ti
  atom 6.566074 1.486441 38.790438 Ti
  atom 4.559740 1.486441 38.790467 O
  atom 6.566096 0.000000 40.067204 O
  atom 3.282970 0.000000 40.796906 O
  atom 5.289327 1.486441 42.073643 O
  atom 6.566056 0.000000 42.073673 Ti
  atom 3.282993 1.486441 42.073673 Ti
  atom 1.276659 1.486441 42.073702 O
  atom 3.283015 0.000000 43.350440 O
  atom 6.566016 0.000000 44.080141 O
  atom 2.006246 1.486441 45.356879 O
  atom 3.282975 0.000000 45.356908 Ti
  atom 6.566039 1.486441 45.356908 Ti
  atom 4.559704 1.486441 45.356937 O
  atom 6.566061 0.000000 46.633675 O
  atom 3.282935 0.000000 47.363377 O
  atom 5.289292 1.486441 48.640114 O
  atom 6.566021 0.000000 48.640143 Ti
  atom 3.282958 1.486441 48.640143 Ti
  atom 1.276623 1.486441 48.640173 O
  atom 3.282980 0.000000 49.916910 O
  atom 6.565981 0.000000 50.646612 O
  atom 2.006211 1.486441 51.923349 O
  atom 3.282940 0.000000 51.923379 Ti
  atom 6.566003 1.486441 51.923379 Ti
  atom 4.559669 1.486441 51.923408 O
  atom 6.566026 0.000000 53.200145 O
  atom 3.282900 0.000000 53.929847 O
  atom 5.289257 1.486441 55.206584 O
  atom 6.565986 0.000000 55.206614 Ti
  atom 3.282922 1.486441 55.206614 Ti
  atom 1.276588 1.486441 55.206643 O
  atom 3.282945 0.000000 56.483381 O
  atom 3.282945 0.000000 57.483381 H
  atom 6.565986 0.000000 57.206614 O
  atom 6.565986 0.000000 58.206614 H
  atom 6.566086 0.000000 29.947200 H
  atom 3.283046 0.000000 30.223967 O
  atom 3.283046 0.000000 29.223967 H
  atom 6.566086 2.972883 30.947200 O
  atom 2.006317 4.459324 32.223938 O
  atom 3.283046 2.972883 32.223967 Ti
  atom 6.566109 4.459324 32.223967 Ti
  atom 4.559775 4.459324 32.223996 O
  atom 0.000005 2.972883 33.500734 O
  atom 3.283006 2.972883 34.230436 O
  atom 5.289362 4.459324 35.507173 O
  atom 6.566091 2.972883 35.507202 Ti
  atom 3.283028 4.459324 35.507202 Ti
  atom 1.276694 4.459324 35.507232 O
  atom 3.283051 2.972883 36.783969 O
  atom 6.566051 2.972883 37.513671 O
  atom 2.006281 4.459324 38.790408 O
  atom 3.283010 2.972883 38.790438 Ti
  atom 6.566074 4.459324 38.790438 Ti
  atom 4.559740 4.459324 38.790467 O
  atom 6.566096 2.972883 40.067204 O
  atom 3.282970 2.972883 40.796906 O
  atom 5.289327 4.459324 42.073643 O
  atom 6.566056 2.972883 42.073673 Ti
  atom 3.282993 4.459324 42.073673 Ti
  atom 1.276659 4.459324 42.073702 O
  atom 3.283015 2.972883 43.350440 O
  atom 6.566016 2.972883 44.080141 O
  atom 2.006246 4.459324 45.356879 O
  atom 3.282975 2.972883 45.356908 Ti
  atom 6.566039 4.459324 45.356908 Ti
  atom 4.559704 4.459324 45.356937 O
  atom 6.566061 2.972883 46.633675 O
  atom 3.282935 2.972883 47.363377 O
  atom 5.289292 4.459324 48.640114 O
  atom 6.566021 2.972883 48.640143 Ti
  atom 3.282958 4.459324 48.640143 Ti
  atom 1.276623 4.459324 48.640173 O
  atom 3.282980 2.972883 49.916910 O
  atom 6.565981 2.972883 50.646612 O
  atom 2.006211 4.459324 51.923349 O
  atom 3.282940 2.972883 51.923379 Ti
  atom 6.566003 4.459324 51.923379 Ti
  atom 4.559669 4.459324 51.923408 O
  atom 6.566026 2.972883 53.200145 O
  atom 3.282900 2.972883 53.929847 O
  atom 5.289257 4.459324 55.206584 O
  atom 6.565986 2.972883 55.206614 Ti
  atom 3.282922 4.459324 55.206614 Ti
  atom 1.276588 4.459324 55.206643 O
  atom 3.282945 2.972883 56.483381 O
  atom 3.282945 2.972883 57.483381 H
  atom 6.565986 2.972883 57.206614 O
  atom 6.565986 2.972883 58.206614 H
  atom 6.566086 2.972883 29.947200 H
  atom 3.283046 2.972883 30.223967 O
  atom 3.283046 2.972883 29.223967 H
  atom 6.566086 5.945765 30.947200 O
  atom 2.006317 7.432207 32.223938 O
  atom 3.283046 5.945765 32.223967 Ti
  atom 6.566109 7.432207 32.223967 Ti
  atom 4.559775 7.432207 32.223996 O
  atom 0.000005 5.945765 33.500734 O
  atom 3.283006 5.945765 34.230436 O
  atom 5.289362 7.432207 35.507173 O
  atom 6.566091 5.945765 35.507202 Ti
  atom 3.283028 7.432207 35.507202 Ti
  atom 1.276694 7.432207 35.507232 O
  atom 3.283051 5.945765 36.783969 O
  atom 6.566051 5.945765 37.513671 O
  atom 2.006281 7.432207 38.790408 O
  atom 3.283010 5.945765 38.790438 Ti
  atom 6.566074 7.432207 38.790438 Ti
  atom 4.559740 7.432207 38.790467 O
  atom 6.566096 5.945765 40.067204 O
  atom 3.282970 5.945765 40.796906 O
  atom 5.289327 7.432207 42.073643 O
  atom 6.566056 5.945765 42.073673 Ti
  atom 3.282993 7.432207 42.073673 Ti
  atom 1.276659 7.432207 42.073702 O
  atom 3.283015 5.945765 43.350440 O
  atom 6.566016 5.945765 44.080141 O
  atom 2.006246 7.432207 45.356879 O
  atom 3.282975 5.945765 45.356908 Ti
  atom 6.566039 7.432207 45.356908 Ti
  atom 4.559704 7.432207 45.356937 O
  atom 6.566061 5.945765 46.633675 O
  atom 3.282935 5.945765 47.363377 O
  atom 5.289292 7.432207 48.640114 O
  atom 6.566021 5.945765 48.640143 Ti
  atom 3.282958 7.432207 48.640143 Ti
  atom 1.276623 7.432207 48.640173 O
  atom 3.282980 5.945765 49.916910 O
  atom 6.565981 5.945765 50.646612 O
  atom 2.006211 7.432207 51.923349 O
  atom 3.282940 5.945765 51.923379 Ti
  atom 6.566003 7.432207 51.923379 Ti
  atom 4.559669 7.432207 51.923408 O
  atom 6.566026 5.945765 53.200145 O
  atom 3.282900 5.945765 53.929847 O
  atom 5.289257 7.432207 55.206584 O
  atom 6.565986 5.945765 55.206614 Ti
  atom 3.282922 7.432207 55.206614 Ti
  atom 1.276588 7.432207 55.206643 O
  atom 3.282945 5.945765 56.483381 O
  atom 3.282945 5.945765 57.483381 H
  atom 6.565986 5.945765 57.206614 O
  atom 6.565986 5.945765 58.206614 H
  atom 6.566086 5.945765 29.947200 H
  atom 3.283046 5.945765 30.223967 O
  atom 3.283046 5.945765 29.223967 H
  atom 6.566086 8.918648 30.947200 O
  atom 2.006317 10.405089 32.223938 O
  atom 3.283046 8.918648 32.223967 Ti
  atom 6.566109 10.405089 32.223967 Ti
  atom 4.559775 10.405089 32.223996 O
  atom 0.000005 8.918648 33.500734 O
  atom 3.283006 8.918648 34.230436 O
  atom 5.289362 10.405089 35.507173 O
  atom 6.566091 8.918648 35.507202 Ti
  atom 3.283028 10.405089 35.507202 Ti
  atom 1.276694 10.405089 35.507232 O
  atom 3.283051 8.918648 36.783969 O
  atom 6.566051 8.918648 37.513671 O
  atom 2.006281 10.405089 38.790408 O
  atom 3.283010 8.918648 38.790438 Ti
  atom 6.566074 10.405089 38.790438 Ti
  atom 4.559740 10.405089 38.790467 O
  atom 6.566096 8.918648 40.067204 O
  atom 3.282970 8.918648 40.796906 O
  atom 5.289327 10.405089 42.073643 O
  atom 6.566056 8.918648 42.073673 Ti
  atom 3.282993 10.405089 42.073673 Ti
  atom 1.276659 10.405089 42.073702 O
  atom 3.283015 8.918648 43.350440 O
  atom 6.566016 8.918648 44.080141 O
  atom 2.006246 10.405089 45.356879 O
  atom 3.282975 8.918648 45.356908 Ti
  atom 6.566039 10.405089 45.356908 Ti
  atom 4.559704 10.405089 45.356937 O
  atom 6.566061 8.918648 46.633675 O
  atom 3.282935 8.918648 47.363377 O
  atom 5.289292 10.405089 48.640114 O
  atom 6.566021 8.918648 48.640143 Ti
  atom 3.282958 10.405089 48.640143 Ti
  atom 1.276623 10.405089 48.640173 O
  atom 3.282980 8.918648 49.916910 O
  atom 6.565981 8.918648 50.646612 O
  atom 2.006211 10.405089 51.923349 O
  atom 3.282940 8.918648 51.923379 Ti
  atom 6.566003 10.405089 51.923379 Ti
  atom 4.559669 10.405089 51.923408 O
  atom 6.566026 8.918648 53.200145 O
  atom 3.282900 8.918648 53.929847 O
  atom 5.289257 10.405089 55.206584 O
  atom 6.565986 8.918648 55.206614 Ti
  atom 3.282922 10.405089 55.206614 Ti
  atom 1.276588 10.405089 55.206643 O
  atom 3.282945 8.918648 56.483381 O
  atom 3.282945 8.918648 57.483381 H
  atom 6.565986 8.918648 57.206614 O
  atom 6.565986 8.918648 58.206614 H
  atom 6.566086 8.918648 29.947200 H
  atom 3.283046 8.918648 30.223967 O
  atom 3.283046 8.918648 29.223967 H
  atom 6.566086 11.891531 30.947200 O
  atom 2.006317 13.377972 32.223938 O
  atom 3.283046 11.891531 32.223967 Ti
  atom 6.566109 13.377972 32.223967 Ti
  atom 4.559775 13.377972 32.223996 O
  atom 0.000005 11.891531 33.500734 O
  atom 3.283006 11.891531 34.230436 O
  atom 5.289362 13.377972 35.507173 O
  atom 6.566091 11.891531 35.507202 Ti
  atom 3.283028 13.377972 35.507202 Ti
  atom 1.276694 13.377972 35.507232 O
  atom 3.283051 11.891531 36.783969 O
  atom 6.566051 11.891531 37.513671 O
  atom 2.006281 13.377972 38.790408 O
  atom 3.283010 11.891531 38.790438 Ti
  atom 6.566074 13.377972 38.790438 Ti
  atom 4.559740 13.377972 38.790467 O
  atom 6.566096 11.891531 40.067204 O
  atom 3.282970 11.891531 40.796906 O
  atom 5.289327 13.377972 42.073643 O
  atom 6.566056 11.891531 42.073673 Ti
  atom 3.282993 13.377972 42.073673 Ti
  atom 1.276659 13.377972 42.073702 O
  atom 3.283015 11.891531 43.350440 O
  atom 6.566016 11.891531 44.080141 O
  atom 2.006246 13.377972 45.356879 O
  atom 3.282975 11.891531 45.356908 Ti
  atom 6.566039 13.377972 45.356908 Ti
  atom 4.559704 13.377972 45.356937 O
  atom 6.566061 11.891531 46.633675 O
  atom 3.282935 11.891531 47.363377 O
  atom 5.289292 13.377972 48.640114 O
  atom 6.566021 11.891531 48.640143 Ti
  atom 3.282958 13.377972 48.640143 Ti
  atom 1.276623 13.377972 48.640173 O
  atom 3.282980 11.891531 49.916910 O
  atom 6.565981 11.891531 50.646612 O
  atom 2.006211 13.377972 51.923349 O
  atom 3.282940 11.891531 51.923379 Ti
  atom 6.566003 13.377972 51.923379 Ti
  atom 4.559669 13.377972 51.923408 O
  atom 6.566026 11.891531 53.200145 O
  atom 3.282900 11.891531 53.929847 O
  atom 5.289257 13.377972 55.206584 O
  atom 6.565986 11.891531 55.206614 Ti
  atom 3.282922 13.377972 55.206614 Ti
  atom 1.276588 13.377972 55.206643 O
  atom 3.282945 11.891531 56.483381 O
  atom 3.282945 11.891531 57.483381 H
  atom 6.565986 11.891531 57.206614 O
  atom 6.565986 11.891531 58.206614 H
  atom 6.566086 11.891531 29.947200 H
  atom 3.283046 11.891531 30.223967 O
  atom 3.283046 11.891531 29.223967 H
  atom 6.566086 14.864413 30.947200 O
  atom 2.006317 16.350855 32.223938 O
  atom 3.283046 14.864413 32.223967 Ti
  atom 6.566109 16.350855 32.223967 Ti
  atom 4.559775 16.350855 32.223996 O
  atom 0.000005 14.864413 33.500734 O
  atom 3.283006 14.864413 34.230436 O
  atom 5.289362 16.350855 35.507173 O
  atom 6.566091 14.864413 35.507202 Ti
  atom 3.283028 16.350855 35.507202 Ti
  atom 1.276694 16.350855 35.507232 O
  atom 3.283051 14.864413 36.783969 O
  atom 6.566051 14.864413 37.513671 O
  atom 2.006281 16.350855 38.790408 O
  atom 3.283010 14.864413 38.790438 Ti
  atom 6.566074 16.350855 38.790438 Ti
  atom 4.559740 16.350855 38.790467 O
  atom 6.566096 14.864413 40.067204 O
  atom 3.282970 14.864413 40.796906 O
  atom 5.289327 16.350855 42.073643 O
  atom 6.566056 14.864413 42.073673 Ti
  atom 3.282993 16.350855 42.073673 Ti
  atom 1.276659 16.350855 42.073702 O
  atom 3.283015 14.864413 43.350440 O
  atom 6.566016 14.864413 44.080141 O
  atom 2.006246 16.350855 45.356879 O
  atom 3.282975 14.864413 45.356908 Ti
  atom 6.566039 16.350855 45.356908 Ti
  atom 4.559704 16.350855 45.356937 O
  atom 6.566061 14.864413 46.633675 O
  atom 3.282935 14.864413 47.363377 O
  atom 5.289292 16.350855 48.640114 O
  atom 6.566021 14.864413 48.640143 Ti
  atom 3.282958 16.350855 48.640143 Ti
  atom 1.276623 16.350855 48.640173 O
  atom 3.282980 14.864413 49.916910 O
  atom 6.565981 14.864413 50.646612 O
  atom 2.006211 16.350855 51.923349 O
  atom 3.282940 14.864413 51.923379 Ti
  atom 6.566003 16.350855 51.923379 Ti
  atom 4.559669 16.350855 51.923408 O
  atom 6.566026 14.864413 53.200145 O
  atom 3.282900 14.864413 53.929847 O
  atom 5.289257 16.350855 55.206584 O
  atom 6.565986 14.864413 55.206614 Ti
  atom 3.282922 16.350855 55.206614 Ti
  atom 1.276588 16.350855 55.206643 O
  atom 3.282945 14.864413 56.483381 O
  atom 3.282945 14.864413 57.483381 H
  atom 6.565986 14.864413 57.206614 O
  atom 6.565986 14.864413 58.206614 H
  atom 6.566086 14.864413 29.947200 H
  atom 3.283046 14.864413 30.223967 O
  atom 3.283046 14.864413 29.223967 H
  atom 6.566086 17.837296 30.947200 O
  atom 2.006317 19.323737 32.223938 O
  atom 3.283046 17.837296 32.223967 Ti
  atom 6.566109 19.323737 32.223967 Ti
  atom 4.559775 19.323737 32.223996 O
  atom 0.000005 17.837296 33.500734 O
  atom 3.283006 17.837296 34.230436 O
  atom 5.289362 19.323737 35.507173 O
  atom 6.566091 17.837296 35.507202 Ti
  atom 3.283028 19.323737 35.507202 Ti
  atom 1.276694 19.323737 35.507232 O
  atom 3.283051 17.837296 36.783969 O
  atom 6.566051 17.837296 37.513671 O
  atom 2.006281 19.323737 38.790408 O
  atom 3.283010 17.837296 38.790438 Ti
  atom 6.566074 19.323737 38.790438 Ti
  atom 4.559740 19.323737 38.790467 O
  atom 6.566096 17.837296 40.067204 O
  atom 3.282970 17.837296 40.796906 O
  atom 5.289327 19.323737 42.073643 O
  atom 6.566056 17.837296 42.073673 Ti
  atom 3.282993 19.323737 42.073673 Ti
  atom 1.276659 19.323737 42.073702 O
  atom 3.283015 17.837296 43.350440 O
  atom 6.566016 17.837296 44.080141 O
  atom 2.006246 19.323737 45.356879 O
  atom 3.282975 17.837296 45.356908 Ti
  atom 6.566039 19.323737 45.356908 Ti
  atom 4.559704 19.323737 45.356937 O
  atom 6.566061 17.837296 46.633675 O
  atom 3.282935 17.837296 47.363377 O
  atom 5.289292 19.323737 48.640114 O
  atom 6.566021 17.837296 48.640143 Ti
  atom 3.282958 19.323737 48.640143 Ti
  atom 1.276623 19.323737 48.640173 O
  atom 3.282980 17.837296 49.916910 O
  atom 6.565981 17.837296 50.646612 O
  atom 2.006211 19.323737 51.923349 O
  atom 3.282940 17.837296 51.923379 Ti
  atom 6.566003 19.323737 51.923379 Ti
  atom 4.559669 19.323737 51.923408 O
  atom 6.566026 17.837296 53.200145 O
  atom 3.282900 17.837296 53.929847 O
  atom 5.289257 19.323737 55.206584 O
  atom 6.565986 17.837296 55.206614 Ti
  atom 3.282922 19.323737 55.206614 Ti
  atom 1.276588 19.323737 55.206643 O
  atom 3.282945 17.837296 56.483381 O
  atom 3.282945 17.837296 57.483381 H
  atom 6.565986 17.837296 57.206614 O
  atom 6.565986 17.837296 58.206614 H
  atom 6.566086 17.837296 29.947200 H
  atom 3.283046 17.837296 30.223967 O
  atom 3.283046 17.837296 29.223967 H
  atom 6.566086 20.810179 30.947200 O
  atom 2.006317 22.296620 32.223938 O
  atom 3.283046 20.810179 32.223967 Ti
  atom 6.566109 22.296620 32.223967 Ti
  atom 4.559775 22.296620 32.223996 O
  atom 0.000005 20.810179 33.500734 O
  atom 3.283006 20.810179 34.230436 O
  atom 5.289362 22.296620 35.507173 O
  atom 6.566091 20.810179 35.507202 Ti
  atom 3.283028 22.296620 35.507202 Ti
  atom 1.276694 22.296620 35.507232 O
  atom 3.283051 20.810179 36.783969 O
  atom 6.566051 20.810179 37.513671 O
  atom 2.006281 22.296620 38.790408 O
  atom 3.283010 20.810179 38.790438 Ti
  atom 6.566074 22.296620 38.790438 Ti
  atom 4.559740 22.296620 38.790467 O
  atom 6.566096 20.810179 40.067204 O
  atom 3.282970 20.810179 40.796906 O
  atom 5.289327 22.296620 42.073643 O
  atom 6.566056 20.810179 42.073673 Ti
  atom 3.282993 22.296620 42.073673 Ti
  atom 1.276659 22.296620 42.073702 O
  atom 3.283015 20.810179 43.350440 O
  atom 6.566016 20.810179 44.080141 O
  atom 2.006246 22.296620 45.356879 O
  atom 3.282975 20.810179 45.356908 Ti
  atom 6.566039 22.296620 45.356908 Ti
  atom 4.559704 22.296620 45.356937 O
  atom 6.566061 20.810179 46.633675 O
  atom 3.282935 20.810179 47.363377 O
  atom 5.289292 22.296620 48.640114 O
  atom 6.566021 20.810179 48.640143 Ti
  atom 3.282958 22.296620 48.640143 Ti
  atom 1.276623 22.296620 48.640173 O
  atom 3.282980 20.810179 49.916910 O
  atom 6.565981 20.810179 50.646612 O
  atom 2.006211 22.296620 51.923349 O
  atom 3.282940 20.810179 51.923379 Ti
  atom 6.566003 22.296620 51.923379 Ti
  atom 4.559669 22.296620 51.923408 O
  atom 6.566026 20.810179 53.200145 O
  atom 3.282900 20.810179 53.929847 O
  atom 5.289257 22.296620 55.206584 O
  atom 6.565986 20.810179 55.206614 Ti
  atom 3.282922 22.296620 55.206614 Ti
  atom 1.276588 22.296620 55.206643 O
  atom 3.282945 20.810179 56.483381 O
  atom 3.282945 20.810179 57.483381 H
  atom 6.565986 20.810179 57.206614 O
  atom 6.565986 20.810179 58.206614 H
  atom 6.566086 20.810179 29.947200 H
  atom 3.283046 20.810179 30.223967 O
  atom 3.283046 20.810179 29.223967 H
  atom 13.132213 0.000000 30.947200 O
  atom 8.572443 1.486441 32.223938 O
  atom 9.849172 0.000000 32.223967 Ti
  atom 13.132235 1.486441 32.223967 Ti
  atom 11.125901 1.486441 32.223996 O
  atom 6.566131 0.000000 33.500734 O
  atom 9.849132 0.000000 34.230436 O
  atom 11.855489 1.486441 35.507173 O
  atom 13.132218 0.000000 35.507202 Ti
  atom 9.849155 1.486441 35.507202 Ti
  atom 7.842820 1.486441 35.507232 O
  atom 9.849177 0.000000 36.783969 O
  atom 13.132178 0.000000 37.513671 O
  atom 8.572408 1.486441 38.790408 O
  atom 9.849137 0.000000 38.790438 Ti
  atom 13.132200 1.486441 38.790438 Ti
  atom 11.125866 1.486441 38.790467 O
  atom 13.132223 0.000000 40.067204 O
  atom 9.849097 0.000000 40.796906 O
  atom 11.855454 1.486441 42.073643 O
  atom 13.132183 0.000000 42.073673 Ti
  atom 9.849119 1.486441 42.073673 Ti
  atom 7.842785 1.486441 42.073702 O
  atom 9.849142 0.000000 43.350440 O
  atom 13.132143 0.000000 44.080141 O
  atom 8.572373 1.486441 45.356879 O
  atom 9.849102 0.000000 45.356908 Ti
  atom 13.132165 1.486441 45.356908 Ti
  atom 11.125831 1.486441 45.356937 O
  atom 13.132188 0.000000 46.633675 O
  atom 9.849062 0.000000 47.363377 O
  atom 11.855418 1.486441 48.640114 O
  atom 13.132147 0.000000 48.640143 Ti
  atom 9.849084 1.486441 48.640143 Ti
  atom 7.842750 1.486441 48.640173 O
  atom 9.849107 0.000000 49.916910 O
  atom 13.132107 0.000000 50.646612 O
  atom 8.572338 1.486441 51.923349 O
  atom 9.849067 0.000000 51.923379 Ti
  atom 13.132130 1.486441 51.923379 Ti
  atom 11.125796 1.486441 51.923408 O
  atom 13.132152 0.000000 53.200145 O
  atom 9.849026 0.000000 53.929847 O
  atom 11.855383 1.486441 55.206584 O
  atom 13.132112 0.000000 55.206614 Ti
  atom 9.849049 1.486441 55.206614 Ti
  atom 7.842715 1.486441 55.206643 O
  atom 9.849071 0.000000 56.483381 O
  atom 9.849072 0.000000 57.483381 H
  atom 13.132113 0.000000 57.206614 O
  atom 13.132113 0.000000 58.206614 H
  atom 13.132213 0.000000 29.947200 H
  atom 9.849173 0.000000 30.223967 O
  atom 9.849173 0.000000 29.223967 H
  atom 13.132213 2.972883 30.947200 O
  atom 8.572443 4.459324 32.223938 O
  atom 9.849172 2.972883 32.223967 Ti
  atom 13.132235 4.459324 32.223967 Ti
  atom 11.125901 4.459324 32.223996 O
  atom 6.566131 2.972883 33.500734 O
  atom 9.849132 2.972883 34.230436 O
  atom 11.855489 4.459324 35.507173 O
  atom 13.132218 2.972883 35.507202 Ti
  atom 9.849155 4.459324 35.507202 Ti
  atom 7.842820 4.459324 35.507232 O
  atom 9.849177 2.972883 36.783969 O
  atom 13.132178 2.972883 37.513671 O
  atom 8.572408 4.459324 38.790408 O
  atom 9.849137 2.972883 38.790438 Ti
  atom 13.132200 4.459324 38.790438 Ti
  atom 11.125866 4.459324 38.790467 O
  atom 13.132223 2.972883 40.067204 O
  atom 9.849097 2.972883 40.796906 O
  atom 11.855454 4.459324 42.073643 O
  atom 13.132183 2.972883 42.073673 Ti
  atom 9.849119 4.459324 42.073673 Ti
  atom 7.842785 4.459324 42.073702 O
  atom 9.849142 2.972883 43.350440 O
  atom 13.132143 2.972883 44.080141 O
  atom 8.572373 4.459324 45.356879 O
  atom 9.849102 2.972883 45.356908 Ti
  atom 13.132165 4.459324 45.356908 Ti
  atom 11.125831 4.459324 45.356937 O
  atom 13.132188 2.972883 46.633675 O
  atom 9.849062 2.972883 47.363377 O
  atom 11.855418 4.459324 48.640114 O
  atom 13.132147 2.972883 48.640143 Ti
  atom 9.849084 4.459324 48.640143 Ti
  atom 7.842750 4.459324 48.640173 O
  atom 9.849107 2.972883 49.916910 O
  atom 13.132107 2.972883 50.646612 O
  atom 8.572338 4.459324 51.923349 O
  atom 9.849067 2.972883 51.923379 Ti
  atom 13.132130 4.459324 51.923379 Ti
  atom 11.125796 4.459324 51.923408 O
  atom 13.132152 2.972883 53.200145 O
  atom 9.849026 2.972883 53.929847 O
  atom 11.855383 4.459324 55.206584 O
  atom 13.132112 2.972883 55.206614 Ti
  atom 9.849049 4.459324 55.206614 Ti
  atom 7.842715 4.459324 55.206643 O
  atom 9.849071 2.972883 56.483381 O
  atom 9.849072 2.972883 57.483381 H
  atom 13.132113 2.972883 57.206614 O
  atom 13.132113 2.972883 58.206614 H
  atom 13.132213 2.972883 29.947200 H
  atom 9.849173 2.972883 30.223967 O
  atom 9.849173 2.972883 29.223967 H
  atom 13.132213 5.945765 30.947200 O
  atom 8.572443 7.432207 32.223938 O
  atom 9.849172 5.945765 32.223967 Ti
  atom 13.132235 7.432207 32.223967 Ti
  atom 11.125901 7.432207 32.223996 O
  atom 6.566131 5.945765 33.500734 O
  atom 9.849132 5.945765 34.230436 O
  atom 11.855489 7.432207 35.507173 O
  atom 13.132218 5.945765 35.507202 Ti
  atom 9.849155 7.432207 35.507202 Ti
  atom 7.842820 7.432207 35.507232 O
  atom 9.849177 5.945765 36.783969 O
  atom 13.132178 5.945765 37.513671 O
  atom 8.572408 7.432207 38.790408 O
  atom 9.849137 5.945765 38.790438 Ti
  atom 13.132200 7.432207 38.790438 Ti
  atom 11.125866 7.432207 38.790467 O
  atom 13.132223 5.945765 40.067204 O
  atom 9.849097 5.945765 40.796906 O
  atom 11.855454 7.432207 42.073643 O
  atom 13.132183 5.945765 42.073673 Ti
  atom 9.849119 7.432207 42.073673 Ti
  atom 7.842785 7.432207 42.073702 O
  atom 9.849142 5.945765 43.350440 O
  atom 13.132143 5.945765 44.080141 O
  atom 8.572373 7.432207 45.356879 O
  atom 9.849102 5.945765 45.356908 Ti
  atom 13.132165 7.432207 45.356908 Ti
  atom 11.125831 7.432207 45.356937 O
  atom 13.132188 5.945765 46.633675 O
  atom 9.849062 5.945765 47.363377 O
  atom 11.855418 7.432207 48.640114 O
  atom 13.132147 5.945765 48.640143 Ti
  atom 9.849084 7.432207 48.640143 Ti
  atom 7.842750 7.432207 48.640173 O
  atom 9.849107 5.945765 49.916910 O
  atom 13.132107 5.945765 50.646612 O
  atom 8.572338 7.432207 51.923349 O
  atom 9.849067 5.945765 51.923379 Ti
  atom 13.132130 7.432207 51.923379 Ti
  atom 11.125796 7.432207 51.923408 O
  atom 13.132152 5.945765 53.200145 O
  atom 9.849026 5.945765 53.929847 O
  atom 11.855383 7.432207 55.206584 O
  atom 13.132112 5.945765 55.206614 Ti
  atom 9.849049 7.432207 55.206614 Ti
  atom 7.842715 7.432207 55.206643 O
  atom 9.849071 5.945765 56.483381 O
  atom 9.849072 5.945765 57.483381 H
  atom 13.132113 5.945765 57.206614 O
  atom 13.132113 5.945765 58.206614 H
  atom 13.132213 5.945765 29.947200 H
  atom 9.849173 5.945765 30.223967 O
  atom 9.849173 5.945765 29.223967 H
  atom 13.132213 8.918648 30.947200 O
  atom 8.572443 10.405089 32.223938 O
  atom 9.849172 8.918648 32.223967 Ti
  atom 13.132235 10.405089 32.223967 Ti
  atom 11.125901 10.405089 32.223996 O
  atom 6.566131 8.918648 33.500734 O
  atom 9.849132 8.918648 34.230436 O
  atom 11.855489 10.405089 35.507173 O
  atom 13.132218 8.918648 35.507202 Ti
  atom 9.849155 10.405089 35.507202 Ti
  atom 7.842820 10.405089 35.507232 O
  atom 9.849177 8.918648 36.783969 O
  atom 13.132178 8.918648 37.513671 O
  atom 8.572408 10.405089 38.790408 O
  atom 9.849137 8.918648 38.790438 Ti
  atom 13.132200 10.405089 38.790438 Ti
  atom 11.125866 10.405089 38.790467 O
  atom 13.132223 8.918648 40.067204 O
  atom 9.849097 8.918648 40.796906 O
  atom 11.855454 10.405089 42.073643 O
  atom 13.132183 8.918648 42.073673 Ti
  atom 9.849119 10.405089 42.073673 Ti
  atom 7.842785 10.405089 42.073702 O
  atom 9.849142 8.918648 43.350440 O
  atom 13.132143 8.918648 44.080141 O
  atom 8.572373 10.405089 45.356879 O
  atom 9.849102 8.918648 45.356908 Ti
  atom 13.132165 10.405089 45.356908 Ti
  atom 11.125831 10.405089 45.356937 O
  atom 13.132188 8.918648 46.633675 O
  atom 9.849062 8.918648 47.363377 O
  atom 11.855418 10.405089 48.640114 O
  atom 13.132147 8.918648 48.640143 Ti
  atom 9.849084 10.405089 48.640143 Ti
  atom 7.842750 10.405089 48.640173 O
  atom 9.849107 8.918648 49.916910 O
  atom 13.132107 8.918648 50.646612 O
  atom 8.572338 10.405089 51.923349 O
  atom 9.849067 8.918648 51.923379 Ti
  atom 13.132130 10.405089 51.923379 Ti
  atom 11.125796 10.405089 51.923408 O
  atom 13.132152 8.918648 53.200145 O
  atom 9.849026 8.918648 53.929847 O
  atom 11.855383 10.405089 55.206584 O
  atom 13.132112 8.918648 55.206614 Ti
  atom 9.849049 10.405089 55.206614 Ti
  atom 7.842715 10.405089 55.206643 O
  atom 9.849071 8.918648 56.483381 O
  atom 9.849072 8.918648 57.483381 H
  atom 13.132113 8.918648 57.206614 O
  atom 13.132113 8.918648 58.206614 H
  atom 13.132213 8.918648 29.947200 H
  atom 9.849173 8.918648 30.223967 O
  atom 9.849173 8.918648 29.223967 H
  atom 13.132213 11.891531 30.947200 O
  atom 8.572443 13.377972 32.223938 O
  atom 9.849172 11.891531 32.223967 Ti
  atom 13.132235 13.377972 32.223967 Ti
  atom 11.125901 13.377972 32.223996 O
  atom 6.566131 11.891531 33.500734 O
  atom 9.849132 11.891531 34.230436 O
  atom 11.855489 13.377972 35.507173 O
  atom 13.132218 11.891531 35.507202 Ti
  atom 9.849155 13.377972 35.507202 Ti
  atom 7.842820 13.377972 35.507232 O
  atom 9.849177 11.891531 36.783969 O
  atom 13.132178 11.891531 37.513671 O
  atom 8.572408 13.377972 38.790408 O
  atom 9.849137 11.891531 38.790438 Ti
  atom 13.132200 13.377972 38.790438 Ti
  atom 11.125866 13.377972 38.790467 O
  atom 13.132223 11.891531 40.067204 O
  atom 9.849097 11.891531 40.796906 O
  atom 11.855454 13.377972 42.073643 O
  atom 13.132183 11.891531 42.073673 Ti
  atom 9.849119 13.377972 42.073673 Ti
  atom 7.842785 13.377972 42.073702 O
  atom 9.849142 11.891531 43.350440 O
  atom 13.132143 11.891531 44.080141 O
  atom 8.572373 13.377972 45.356879 O
  atom 9.849102 11.891531 45.356908 Ti
  atom 13.132165 13.377972 45.356908 Ti
  atom 11.125831 13.377972 45.356937 O
  atom 13.132188 11.891531 46.633675 O
  atom 9.849062 11.891531 47.363377 O
  atom 11.855418 13.377972 48.640114 O
  atom 13.132147 11.891531 48.640143 Ti
  atom 9.849084 13.377972 48.640143 Ti
  atom 7.842750 13.377972 48.640173 O
  atom 9.849107 11.891531 49.916910 O
  atom 13.132107 11.891531 50.646612 O
  atom 8.572338 13.377972 51.923349 O
  atom 9.849067 11.891531 51.923379 Ti
  atom 13.132130 13.377972 51.923379 Ti
  atom 11.125796 13.377972 51.923408 O
  atom 13.132152 11.891531 53.200145 O
  atom 9.849026 11.891531 53.929847 O
  atom 11.855383 13.377972 55.206584 O
  atom 13.132112 11.891531 55.206614 Ti
  atom 9.849049 13.377972 55.206614 Ti
  atom 7.842715 13.377972 55.206643 O
  atom 9.849071 11.891531 56.483381 O
  atom 9.849072 11.891531 57.483381 H
  atom 13.132113 11.891531 57.206614 O
  atom 13.132113 11.891531 58.206614 H
  atom 13.132213 11.891531 29.947200 H
  atom 9.849173 11.891531 30.223967 O
  atom 9.849173 11.891531 29.223967 H
  atom 13.132213 14.864413 30.947200 O
  atom 8.572443 16.350855 32.223938 O
  atom 9.849172 14.864413 32.223967 Ti
  atom 13.132235 16.350855 32.223967 Ti
  atom 11.125901 16.350855 32.223996 O
  atom 6.566131 14.864413 33.500734 O
  atom 9.849132 14.864413 34.230436 O
  atom 11.855489 16.350855 35.507173 O
  atom 13.132218 14.864413 35.507202 Ti
  atom 9.849155 16.350855 35.507202 Ti
  atom 7.842820 16.350855 35.507232 O
  atom 9.849177 14.864413 36.783969 O
  atom 13.132178 14.864413 37.513671 O
  atom 8.572408 16.350855 38.790408 O
  atom 9.849137 14.864413 38.790438 Ti
  atom 13.132200 16.350855 38.790438 Ti
  atom 11.125866 16.350855 38.790467 O
  atom 13.132223 14.864413 40.067204 O
  atom 9.849097 14.864413 40.796906 O
  atom 11.855454 16.350855 42.073643 O
  atom 13.132183 14.864413 42.073673 Ti
  atom 9.849119 16.350855 42.073673 Ti
  atom 7.842785 16.350855 42.073702 O
  atom 9.849142 14.864413 43.350440 O
  atom 13.132143 14.864413 44.080141 O
  atom 8.572373 16.350855 45.356879 O
  atom 9.849102 14.864413 45.356908 Ti
  atom 13.132165 16.350855 45.356908 Ti
  atom 11.125831 16.350855 45.356937 O
  atom 13.132188 14.864413 46.633675 O
  atom 9.849062 14.864413 47.363377 O
  atom 11.855418 16.350855 48.640114 O
  atom 13.132147 14.864413 48.640143 Ti
  atom 9.849084 16.350855 48.640143 Ti
  atom 7.842750 16.350855 48.640173 O
  atom 9.849107 14.864413 49.916910 O
  atom 13.132107 14.864413 50.646612 O
  atom 8.572338 16.350855 51.923349 O
  atom 9.849067 14.864413 51.923379 Ti
  atom 13.132130 16.350855 51.923379 Ti
  atom 11.125796 16.350855 51.923408 O
  atom 13.132152 14.864413 53.200145 O
  atom 9.849026 14.864413 53.929847 O
  atom 11.855383 16.350855 55.206584 O
  atom 13.132112 14.864413 55.206614 Ti
  atom 9.849049 16.350855 55.206614 Ti
  atom 7.842715 16.350855 55.206643 O
  atom 9.849071 14.864413 56.483381 O
  atom 9.849072 14.864413 57.483381 H
  atom 13.132113 14.864413 57.206614 O
  atom 13.132113 14.864413 58.206614 H
  atom 13.132213 14.864413 29.947200 H
  atom 9.849173 14.864413 30.223967 O
  atom 9.849173 14.864413 29.223967 H
  atom 13.132213 17.837296 30.947200 O
  atom 8.572443 19.323737 32.223938 O
  atom 9.849172 17.837296 32.223967 Ti
  atom 13.132235 19.323737 32.223967 Ti
  atom 11.125901 19.323737 32.223996 O
  atom 6.566131 17.837296 33.500734 O
  atom 9.849132 17.837296 34.230436 O
  atom 11.855489 19.323737 35.507173 O
  atom 13.132218 17.837296 35.507202 Ti
  atom 9.849155 19.323737 35.507202 Ti
  atom 7.842820 19.323737 35.507232 O
  atom 9.849177 17.837296 36.783969 O
  atom 13.132178 17.837296 37.513671 O
  atom 8.572408 19.323737 38.790408 O
  atom 9.849137 17.837296 38.790438 Ti
  atom 13.132200 19.323737 38.790438 Ti
  atom 11.125866 19.323737 38.790467 O
  atom 13.132223 17.837296 40.067204 O
  atom 9.849097 17.837296 40.796906 O
  atom 11.855454 19.323737 42.073643 O
  atom 13.132183 17.837296 42.073673 Ti
  atom 9.849119 19.323737 42.073673 Ti
  atom 7.842785 19.323737 42.073702 O
  atom 9.849142 17.837296 43.350440 O
  atom 13.132143 17.837296 44.080141 O
  atom 8.572373 19.323737 45.356879 O
  atom 9.849102 17.837296 45.356908 Ti
  atom 13.132165 19.323737 45.356908 Ti
  atom 11.125831 19.323737 45.356937 O
  atom 13.132188 17.837296 46.633675 O
  atom 9.849062 17.837296 47.363377 O
  atom 11.855418 19.323737 48.640114 O
  atom 13.132147 17.837296 48.640143 Ti
  atom 9.849084 19.323737 48.640143 Ti
  atom 7.842750 19.323737 48.640173 O
  atom 9.849107 17.837296 49.916910 O
  atom 13.132107 17.837296 50.646612 O
  atom 8.572338 19.323737 51.923349 O
  atom 9.849067 17.837296 51.923379 Ti
  atom 13.132130 19.323737 51.923379 Ti
  atom 11.125796 19.323737 51.923408 O
  atom 13.132152 17.837296 53.200145 O
  atom 9.849026 17.837296 53.929847 O
  atom 11.855383 19.323737 55.206584 O
  atom 13.132112 17.837296 55.206614 Ti
  atom 9.849049 19.323737 55.206614 Ti
  atom 7.842715 19.323737 55.206643 O
  atom 9.849071 17.837296 56.483381 O
  atom 9.849072 17.837296 57.483381 H
  atom 13.132113 17.837296 57.206614 O
  atom 13.132113 17.837296 58.206614 H
  atom 13.132213 17.837296 29.947200 H
  atom 9.849173 17.837296 30.223967 O
  atom 9.849173 17.837296 29.223967 H
  atom 13.132213 20.810179 30.947200 O
  atom 8.572443 22.296620 32.223938 O
  atom 9.849172 20.810179 32.223967 Ti
  atom 13.132235 22.296620 32.223967 Ti
  atom 11.125901 22.296620 32.223996 O
  atom 6.566131 20.810179 33.500734 O
  atom 9.849132 20.810179 34.230436 O
  atom 11.855489 22.296620 35.507173 O
  atom 13.132218 20.810179 35.507202 Ti
  atom 9.849155 22.296620 35.507202 Ti
  atom 7.842820 22.296620 35.507232 O
  atom 9.849177 20.810179 36.783969 O
  atom 13.132178 20.810179 37.513671 O
  atom 8.572408 22.296620 38.790408 O
  atom 9.849137 20.810179 38.790438 Ti
  atom 13.132200 22.296620 38.790438 Ti
  atom 11.125866 22.296620 38.790467 O
  atom 13.132223 20.810179 40.067204 O
  atom 9.849097 20.810179 40.796906 O
  atom 11.855454 22.296620 42.073643 O
  atom 13.132183 20.810179 42.073673 Ti
  atom 9.849119 22.296620 42.073673 Ti
  atom 7.842785 22.296620 42.073702 O
  atom 9.849142 20.810179 43.350440 O
  atom 13.132143 20.810179 44.080141 O
  atom 8.572373 22.296620 45.356879 O
  atom 9.849102 20.810179 45.356908 Ti
  atom 13.132165 22.296620 45.356908 Ti
  atom 11.125831 22.296620 45.356937 O
  atom 13.132188 20.810179 46.633675 O
  atom 9.849062 20.810179 47.363377 O
  atom 11.855418 22.296620 48.640114 O
  atom 13.132147 20.810179 48.640143 Ti
  atom 9.849084 22.296620 48.640143 Ti
  atom 7.842750 22.296620 48.640173 O
  atom 9.849107 20.810179 49.916910 O
  atom 13.132107 20.810179 50.646612 O
  atom 8.572338 22.296620 51.923349 O
  atom 9.849067 20.810179 51.923379 Ti
  atom 13.132130 22.296620 51.923379 Ti
  atom 11.125796 22.296620 51.923408 O
  atom 13.132152 20.810179 53.200145 O
  atom 9.849026 20.810179 53.929847 O
  atom 11.855383 22.296620 55.206584 O
  atom 13.132112 20.810179 55.206614 Ti
  atom 9.849049 22.296620 55.206614 Ti
  atom 7.842715 22.296620 55.206643 O
  atom 9.849071 20.810179 56.483381 O
  atom 9.849072 20.810179 57.483381 H
  atom 13.132113 20.810179 57.206614 O
  atom 13.132113 20.810179 58.206614 H
  atom 13.132213 20.810179 29.947200 H
  atom 9.849173 20.810179 30.223967 O
  atom 9.849173 20.810179 29.223967 H
  atom 19.698339 0.000000 30.947200 O
  atom 15.138570 1.486441 32.223938 O
  atom 16.415299 0.000000 32.223967 Ti
  atom 19.698362 1.486441 32.223967 Ti
  atom 17.692028 1.486441 32.223996 O
  atom 13.132258 0.000000 33.500734 O
  atom 16.415259 0.000000 34.230436 O
  atom 18.421615 1.486441 35.507173 O
  atom 19.698344 0.000000 35.507202 Ti
  atom 16.415281 1.486441 35.507202 Ti
  atom 14.408947 1.486441 35.507232 O
  atom 16.415304 0.000000 36.783969 O
  atom 19.698304 0.000000 37.513671 O
  atom 15.138534 1.486441 38.790408 O
  atom 16.415263 0.000000 38.790438 Ti
  atom 19.698327 1.486441 38.790438 Ti
  atom 17.691993 1.486441 38.790467 O
  atom 19.698349 0.000000 40.067204 O
  atom 16.415223 0.000000 40.796906 O
  atom 18.421580 1.486441 42.073643 O
  atom 19.698309 0.000000 42.073673 Ti
  atom 16.415246 1.486441 42.073673 Ti
  atom 14.408912 1.486441 42.073702 O
  atom 16.415268 0.000000 43.350440 O
  atom 19.698269 0.000000 44.080141 O
  atom 15.138499 1.486441 45.356879 O
  atom 16.415228 0.000000 45.356908 Ti
  atom 19.698292 1.486441 45.356908 Ti
  atom 17.691957 1.486441 45.356937 O
  atom 19.698314 0.000000 46.633675 O
  atom 16.415188 0.000000 47.363377 O
  atom 18.421545 1.486441 48.640114 O
  atom 19.698274 0.000000 48.640143 Ti
  atom 16.415211 1.486441 48.640143 Ti
  atom 14.408876 1.486441 48.640173 O
  atom 16.415233 0.000000 49.916910 O
  atom 19.698234 0.000000 50.646612 O
  atom 15.138464 1.486441 51.923349 O
  atom 16.415193 0.000000 51.923379 Ti
  atom 19.698256 1.486441 51.923379 Ti
  atom 17.691922 1.486441 51.923408 O
  atom 19.698279 0.000000 53.200145 O
  atom 16.415153 0.000000 53.929847 O
  atom 18.421510 1.486441 55.206584 O
  atom 19.698239 0.000000 55.206614 Ti
  atom 16.415175 1.486441 55.206614 Ti
  atom 14.408841 1.486441 55.206643 O
  atom 16.415198 0.000000 56.483381 O
  atom 16.415198 0.000000 57.483381 H
  atom 19.698239 0.000000 57.206614 O
  atom 19.698239 0.000000 58.206614 H
  atom 19.698339 0.000000 29.947200 H
  atom 16.415299 0.000000 30.223967 O
  atom 16.415299 0.000000 29.223967 H
  atom 19.698339 2.972883 30.947200 O
  atom 15.138570 4.459324 32.223938 O
  atom 16.415299 2.972883 32.223967 Ti
  atom 19.698362 4.459324 32.223967 Ti
  atom 17.692028 4.459324 32.223996 O
  atom 13.132258 2.972883 33.500734 O
  atom 16.415259 2.972883 34.230436 O
  atom 18.421615 4.459324 35.507173 O
  atom 19.698344 2.972883 35.507202 Ti
  atom 16.415281 4.459324 35.507202 Ti
  atom 14.408947 4.459324 35.507232 O
  atom 16.415304 2.972883 36.783969 O
  atom 19.698304 2.972883 37.513671 O
  atom 15.138534 4.459324 38.790408 O
  atom 16.415263 2.972883 38.790438 Ti
  atom 19.698327 4.459324 38.790438 Ti
  atom 17.691993 4.459324 38.790467 O
  atom 19.698349 2.972883 40.067204 O
  atom 16.415223 2.972883 40.796906 O
  atom 18.421580 4.459324 42.073643 O
  atom 19.698309 2.972883 42.073673 Ti
  atom 16.415246 4.459324 42.073673 Ti
  atom 14.408912 4.459324 42.073702 O
  atom 16.415268 2.972883 43.350440 O
  atom 19.698269 2.972883 44.080141 O
  atom 15.138499 4.459324 45.356879 O
  atom 16.415228 2.972883 45.356908 Ti
  atom 19.698292 4.459324 45.356908 Ti
  atom 17.691957 4.459324 45.356937 O
  atom 19.698314 2.972883 46.633675 O
  atom 16.415188 2.972883 47.363377 O
  atom 18.421545 4.459324 48.640114 O
  atom 19.698274 2.972883 48.640143 Ti
  atom 16.415211 4.459324 48.640143 Ti
  atom 14.408876 4.459324 48.640173 O
  atom 16.415233 2.972883 49.916910 O
  atom 19.698234 2.972883 50.646612 O
  atom 15.138464 4.459324 51.923349 O
  atom 16.415193 2.972883 51.923379 Ti
  atom 19.698256 4.459324 51.923379 Ti
  atom 17.691922 4.459324 51.923408 O
  atom 19.698279 2.972883 53.200145 O
  atom 16.415153 2.972883 53.929847 O
  atom 18.421510 4.459324 55.206584 O
  atom 19.698239 2.972883 55.206614 Ti
  atom 16.415175 4.459324 55.206614 Ti
  atom 14.408841 4.459324 55.206643 O
  atom 16.415198 2.972883 56.483381 O
  atom 16.415198 2.972883 57.483381 H
  atom 19.698239 2.972883 57.206614 O
  atom 19.698239 2.972883 58.206614 H
  atom 19.698339 2.972883 29.947200 H
  atom 16.415299 2.972883 30.223967 O
  atom 16.415299 2.972883 29.223967 H
  atom 19.698339 5.945765 30.947200 O
  atom 15.138570 7.432207 32.223938 O
  atom 16.415299 5.945765 32.223967 Ti
  atom 19.698362 7.432207 32.223967 Ti
  atom 17.692028 7.432207 32.223996 O
  atom 13.132258 5.945765 33.500734 O
  atom 16.415259 5.945765 34.230436 O
  atom 18.421615 7.432207 35.507173 O
  atom 19.698344 5.945765 35.507202 Ti
  atom 16.415281 7.432207 35.507202 Ti
  atom 14.408947 7.432207 35.507232 O
  atom 16.415304 5.945765 36.783969 O
  atom 19.698304 5.945765 37.513671 O
  atom 15.138534 7.432207 38.790408 O
  atom 16.415263 5.945765 38.790438 Ti
  atom 19.698327 7.432207 38.790438 Ti
  atom 17.691993 7.432207 38.790467 O
  atom 19.698349 5.945765 40.067204 O
  atom 16.415223 5.945765 40.796906 O
  atom 18.421580 7.432207 42.073643 O
  atom 19.698309 5.945765 42.073673 Ti
  atom 16.415246 7.432207 42.073673 Ti
  atom 14.408912 7.432207 42.073702 O
  atom 16.415268 5.945765 43.350440 O
  atom 19.698269 5.945765 44.080141 O
  atom 15.138499 7.432207 45.356879 O
  atom 16.415228 5.945765 45.356908 Ti
  atom 19.698292 7.432207 45.356908 Ti
  atom 17.691957 7.432207 45.356937 O
  atom 19.698314 5.945765 46.633675 O
  atom 16.415188 5.945765 47.363377 O
  atom 18.421545 7.432207 48.640114 O
  atom 19.698274 5.945765 48.640143 Ti
  atom 16.415211 7.432207 48.640143 Ti
  atom 14.408876 7.432207 48.640173 O
  atom 16.415233 5.945765 49.916910 O
  atom 19.698234 5.945765 50.646612 O
  atom 15.138464 7.432207 51.923349 O
  atom 16.415193 5.945765 51.923379 Ti
  atom 19.698256 7.432207 51.923379 Ti
  atom 17.691922 7.432207 51.923408 O
  atom 19.698279 5.945765 53.200145 O
  atom 16.415153 5.945765 53.929847 O
  atom 18.421510 7.432207 55.206584 O
  atom 19.698239 5.945765 55.206614 Ti
  atom 16.415175 7.432207 55.206614 Ti
  atom 14.408841 7.432207 55.206643 O
  atom 16.415198 5.945765 56.483381 O
  atom 16.415198 5.945765 57.483381 H
  atom 19.698239 5.945765 57.206614 O
  atom 19.698239 5.945765 58.206614 H
  atom 19.698339 5.945765 29.947200 H
  atom 16.415299 5.945765 30.223967 O
  atom 16.415299 5.945765 29.223967 H
  atom 19.698339 8.918648 30.947200 O
  atom 15.138570 10.405089 32.223938 O
  atom 16.415299 8.918648 32.223967 Ti
  atom 19.698362 10.405089 32.223967 Ti
  atom 17.692028 10.405089 32.223996 O
  atom 13.132258 8.918648 33.500734 O
  atom 16.415259 8.918648 34.230436 O
  atom 18.421615 10.405089 35.507173 O
  atom 19.698344 8.918648 35.507202 Ti
  atom 16.415281 10.405089 35.507202 Ti
  atom 14.408947 10.405089 35.507232 O
  atom 16.415304 8.918648 36.783969 O
  atom 19.698304 8.918648 37.513671 O
  atom 15.138534 10.405089 38.790408 O
  atom 16.415263 8.918648 38.790438 Ti
  atom 19.698327 10.405089 38.790438 Ti
  atom 17.691993 10.405089 38.790467 O
  atom 19.698349 8.918648 40.067204 O
  atom 16.415223 8.918648 40.796906 O
  atom 18.421580 10.405089 42.073643 O
  atom 19.698309 8.918648 42.073673 Ti
  atom 16.415246 10.405089 42.073673 Ti
  atom 14.408912 10.405089 42.073702 O
  atom 16.415268 8.918648 43.350440 O
  atom 19.698269 8.918648 44.080141 O
  atom 15.138499 10.405089 45.356879 O
  atom 16.415228 8.918648 45.356908 Ti
  atom 19.698292 10.405089 45.356908 Ti
  atom 17.691957 10.405089 45.356937 O
  atom 19.698314 8.918648 46.633675 O
  atom 16.415188 8.918648 47.363377 O
  atom 18.421545 10.405089 48.640114 O
  atom 19.698274 8.918648 48.640143 Ti
  atom 16.415211 10.405089 48.640143 Ti
  atom 14.408876 10.405089 48.640173 O
  atom 16.415233 8.918648 49.916910 O
  atom 19.698234 8.918648 50.646612 O
  atom 15.138464 10.405089 51.923349 O
  atom 16.415193 8.918648 51.923379 Ti
  atom 19.698256 10.405089 51.923379 Ti
  atom 17.691922 10.405089 51.923408 O
  atom 19.698279 8.918648 53.200145 O
  atom 16.415153 8.918648 53.929847 O
  atom 18.421510 10.405089 55.206584 O
  atom 19.698239 8.918648 55.206614 Ti
  atom 16.415175 10.405089 55.206614 Ti
  atom 14.408841 10.405089 55.206643 O
  atom 16.415198 8.918648 56.483381 F
  atom 16.415198 8.918648 57.483381 H
  atom 19.698239 8.918648 57.206614 O
  atom 19.698239 8.918648 58.206614 H
  atom 19.698339 8.918648 29.947200 H
  atom 16.415299 8.918648 30.223967 O
  atom 16.415299 8.918648 29.223967 H
  atom 19.698339 11.891531 30.947200 O
  atom 15.138570 13.377972 32.223938 O
  atom 16.415299 11.891531 32.223967 Ti
  atom 19.698362 13.377972 32.223967 Ti
  atom 17.692028 13.377972 32.223996 O
  atom 13.132258 11.891531 33.500734 O
  atom 16.415259 11.891531 34.230436 O
  atom 18.421615 13.377972 35.507173 O
  atom 19.698344 11.891531 35.507202 Ti
  atom 16.415281 13.377972 35.507202 Ti
  atom 14.408947 13.377972 35.507232 O
  atom 16.415304 11.891531 36.783969 O
  atom 19.698304 11.891531 37.513671 O
  atom 15.138534 13.377972 38.790408 O
  atom 16.415263 11.891531 38.790438 Ti
  atom 19.698327 13.377972 38.790438 Ti
  atom 17.691993 13.377972 38.790467 O
  atom 19.698349 11.891531 40.067204 O
  atom 16.415223 11.891531 40.796906 O
  atom 18.421580 13.377972 42.073643 O
  atom 19.698309 11.891531 42.073673 Ti
  atom 16.415246 13.377972 42.073673 Ti
  atom 14.408912 13.377972 42.073702 O
  atom 16.415268 11.891531 43.350440 O
  atom 19.698269 11.891531 44.080141 O
  atom 15.138499 13.377972 45.356879 O
  atom 16.415228 11.891531 45.356908 Ti
  atom 19.698292 13.377972 45.356908 Ti
  atom 17.691957 13.377972 45.356937 O
  atom 19.698314 11.891531 46.633675 O
  atom 16.415188 11.891531 47.363377 O
  atom 18.421545 13.377972 48.640114 O
  atom 19.698274 11.891531 48.640143 Ti
  atom 16.415211 13.377972 48.640143 Ti
  atom 14.408876 13.377972 48.640173 O
  atom 16.415233 11.891531 49.916910 O
  atom 19.698234 11.891531 50.646612 O
  atom 15.138464 13.377972 51.923349 O
  atom 16.415193 11.891531 51.923379 Ti
  atom 19.698256 13.377972 51.923379 Ti
  atom 17.691922 13.377972 51.923408 O
  atom 19.698279 11.891531 53.200145 O
  atom 16.415153 11.891531 53.929847 O
  atom 18.421510 13.377972 55.206584 O
  atom 19.698239 11.891531 55.206614 Ti
  atom 16.415175 13.377972 55.206614 Ti
  atom 14.408841 13.377972 55.206643 O
  atom 16.415198 11.891531 56.483381 O
  atom 16.415198 11.891531 57.483381 H
  atom 19.698239 11.891531 57.206614 O
  atom 19.698239 11.891531 58.206614 H
  atom 19.698339 11.891531 29.947200 H
  atom 16.415299 11.891531 30.223967 O
  atom 16.415299 11.891531 29.223967 H
  atom 19.698339 14.864413 30.947200 O
  atom 15.138570 16.350855 32.223938 O
  atom 16.415299 14.864413 32.223967 Ti
  atom 19.698362 16.350855 32.223967 Ti
  atom 17.692028 16.350855 32.223996 O
  atom 13.132258 14.864413 33.500734 O
  atom 16.415259 14.864413 34.230436 O
  atom 18.421615 16.350855 35.507173 O
  atom 19.698344 14.864413 35.507202 Ti
  atom 16.415281 16.350855 35.507202 Ti
  atom 14.408947 16.350855 35.507232 O
  atom 16.415304 14.864413 36.783969 O
  atom 19.698304 14.864413 37.513671 O
  atom 15.138534 16.350855 38.790408 O
  atom 16.415263 14.864413 38.790438 Ti
  atom 19.698327 16.350855 38.790438 Ti
  atom 17.691993 16.350855 38.790467 O
  atom 19.698349 14.864413 40.067204 O
  atom 16.415223 14.864413 40.796906 O
  atom 18.421580 16.350855 42.073643 O
  atom 19.698309 14.864413 42.073673 Ti
  atom 16.415246 16.350855 42.073673 Ti
  atom 14.408912 16.350855 42.073702 O
  atom 16.415268 14.864413 43.350440 O
  atom 19.698269 14.864413 44.080141 O
  atom 15.138499 16.350855 45.356879 O
  atom 16.415228 14.864413 45.356908 Ti
  atom 19.698292 16.350855 45.356908 Ti
  atom 17.691957 16.350855 45.356937 O
  atom 19.698314 14.864413 46.633675 O
  atom 16.415188 14.864413 47.363377 O
  atom 18.421545 16.350855 48.640114 O
  atom 19.698274 14.864413 48.640143 Ti
  atom 16.415211 16.350855 48.640143 Ti
  atom 14.408876 16.350855 48.640173 O
  atom 16.415233 14.864413 49.916910 O
  atom 19.698234 14.864413 50.646612 O
  atom 15.138464 16.350855 51.923349 O
  atom 16.415193 14.864413 51.923379 Ti
  atom 19.698256 16.350855 51.923379 Ti
  atom 17.691922 16.350855 51.923408 O
  atom 19.698279 14.864413 53.200145 O
  atom 16.415153 14.864413 53.929847 O
  atom 18.421510 16.350855 55.206584 O
  atom 19.698239 14.864413 55.206614 Ti
  atom 16.415175 16.350855 55.206614 Ti
  atom 14.408841 16.350855 55.206643 O
  atom 16.415198 14.864413 56.483381 O
  atom 16.415198 14.864413 57.483381 H
  atom 19.698239 14.864413 57.206614 O
  atom 19.698239 14.864413 58.206614 H
  atom 19.698339 14.864413 29.947200 H
  atom 16.415299 14.864413 30.223967 O
  atom 16.415299 14.864413 29.223967 H
  atom 19.698339 17.837296 30.947200 O
  atom 15.138570 19.323737 32.223938 O
  atom 16.415299 17.837296 32.223967 Ti
  atom 19.698362 19.323737 32.223967 Ti
  atom 17.692028 19.323737 32.223996 O
  atom 13.132258 17.837296 33.500734 O
  atom 16.415259 17.837296 34.230436 O
  atom 18.421615 19.323737 35.507173 O
  atom 19.698344 17.837296 35.507202 Ti
  atom 16.415281 19.323737 35.507202 Ti
  atom 14.408947 19.323737 35.507232 O
  atom 16.415304 17.837296 36.783969 O
  atom 19.698304 17.837296 37.513671 O
  atom 15.138534 19.323737 38.790408 O
  atom 16.415263 17.837296 38.790438 Ti
  atom 19.698327 19.323737 38.790438 Ti
  atom 17.691993 19.323737 38.790467 O
  atom 19.698349 17.837296 40.067204 O
  atom 16.415223 17.837296 40.796906 O
  atom 18.421580 19.323737 42.073643 O
  atom 19.698309 17.837296 42.073673 Ti
  atom 16.415246 19.323737 42.073673 Ti
  atom 14.408912 19.323737 42.073702 O
  atom 16.415268 17.837296 43.350440 O
  atom 19.698269 17.837296 44.080141 O
  atom 15.138499 19.323737 45.356879 O
  atom 16.415228 17.837296 45.356908 Ti
  atom 19.698292 19.323737 45.356908 Ti
  atom 17.691957 19.323737 45.356937 O
  atom 19.698314 17.837296 46.633675 O
  atom 16.415188 17.837296 47.363377 O
  atom 18.421545 19.323737 48.640114 O
  atom 19.698274 17.837296 48.640143 Ti
  atom 16.415211 19.323737 48.640143 Ti
  atom 14.408876 19.323737 48.640173 O
  atom 16.415233 17.837296 49.916910 O
  atom 19.698234 17.837296 50.646612 O
  atom 15.138464 19.323737 51.923349 O
  atom 16.415193 17.837296 51.923379 Ti
  atom 19.698256 19.323737 51.923379 Ti
  atom 17.691922 19.323737 51.923408 O
  atom 19.698279 17.837296 53.200145 O
  atom 16.415153 17.837296 53.929847 O
  atom 18.421510 19.323737 55.206584 O
  atom 19.698239 17.837296 55.206614 Ti
  atom 16.415175 19.323737 55.206614 Ti
  atom 14.408841 19.323737 55.206643 O
  atom 16.415198 17.837296 56.483381 O
  atom 16.415198 17.837296 57.483381 H
  atom 19.698239 17.837296 57.206614 O
  atom 19.698239 17.837296 58.206614 H
  atom 19.698339 17.837296 29.947200 H
  atom 16.415299 17.837296 30.223967 O
  atom 16.415299 17.837296 29.223967 H
  atom 19.698339 20.810179 30.947200 O
  atom 15.138570 22.296620 32.223938 O
  atom 16.415299 20.810179 32.223967 Ti
  atom 19.698362 22.296620 32.223967 Ti
  atom 17.692028 22.296620 32.223996 O
  atom 13.132258 20.810179 33.500734 O
  atom 16.415259 20.810179 34.230436 O
  atom 18.421615 22.296620 35.507173 O
  atom 19.698344 20.810179 35.507202 Ti
  atom 16.415281 22.296620 35.507202 Ti
  atom 14.408947 22.296620 35.507232 O
  atom 16.415304 20.810179 36.783969 O
  atom 19.698304 20.810179 37.513671 O
  atom 15.138534 22.296620 38.790408 O
  atom 16.415263 20.810179 38.790438 Ti
  atom 19.698327 22.296620 38.790438 Ti
  atom 17.691993 22.296620 38.790467 O
  atom 19.698349 20.810179 40.067204 O
  atom 16.415223 20.810179 40.796906 O
  atom 18.421580 22.296620 42.073643 O
  atom 19.698309 20.810179 42.073673 Ti
  atom 16.415246 22.296620 42.073673 Ti
  atom 14.408912 22.296620 42.073702 O
  atom 16.415268 20.810179 43.350440 O
  atom 19.698269 20.810179 44.080141 O
  atom 15.138499 22.296620 45.356879 O
  atom 16.415228 20.810179 45.356908 Ti
  atom 19.698292 22.296620 45.356908 Ti
  atom 17.691957 22.296620 45.356937 O
  atom 19.698314 20.810179 46.633675 O
  atom 16.415188 20.810179 47.363377 O
  atom 18.421545 22.296620 48.640114 O
  atom 19.698274 20.810179 48.640143 Ti
  atom 16.415211 22.296620 48.640143 Ti
  atom 14.408876 22.296620 48.640173 O
  atom 16.415233 20.810179 49.916910 O
  atom 19.698234 20.810179 50.646612 O
  atom 15.138464 22.296620 51.923349 O
  atom 16.415193 20.810179 51.923379 Ti
  atom 19.698256 22.296620 51.923379 Ti
  atom 17.691922 22.296620 51.923408 O
  atom 19.698279 20.810179 53.200145 O
  atom 16.415153 20.810179 53.929847 O
  atom 18.421510 22.296620 55.206584 O
  atom 19.698239 20.810179 55.206614 Ti
  atom 16.415175 22.296620 55.206614 Ti
  atom 14.408841 22.296620 55.206643 O
  atom 16.415198 20.810179 56.483381 O
  atom 16.415198 20.810179 57.483381 H
  atom 19.698239 20.810179 57.206614 O
  atom 19.698239 20.810179 58.206614 H
  atom 19.698339 20.810179 29.947200 H
  atom 16.415299 20.810179 30.223967 O
  atom 16.415299 20.810179 29.223967 H
  atom 26.264466 0.000000 30.947200 O
  atom 21.704696 1.486441 32.223938 O
  atom 22.981425 0.000000 32.223967 Ti
  atom 26.264488 1.486441 32.223967 Ti
  atom 24.258154 1.486441 32.223996 O
  atom 19.698384 0.000000 33.500734 O
  atom 22.981385 0.000000 34.230436 O
  atom 24.987742 1.486441 35.507173 O
  atom 26.264471 0.000000 35.507202 Ti
  atom 22.981408 1.486441 35.507202 Ti
  atom 20.975073 1.486441 35.507232 O
  atom 22.981430 0.000000 36.783969 O
  atom 26.264431 0.000000 37.513671 O
  atom 21.704661 1.486441 38.790408 O
  atom 22.981390 0.000000 38.790438 Ti
  atom 26.264453 1.486441 38.790438 Ti
  atom 24.258119 1.486441 38.790467 O
  atom 26.264476 0.000000 40.067204 O
  atom 22.981350 0.000000 40.796906 O
  atom 24.987707 1.486441 42.073643 O
  atom 26.264436 0.000000 42.073673 Ti
  atom 22.981372 1.486441 42.073673 Ti
  atom 20.975038 1.486441 42.073702 O
  atom 22.981395 0.000000 43.350440 O
  atom 26.264396 0.000000 44.080141 O
  atom 21.704626 1.486441 45.356879 O
  atom 22.981355 0.000000 45.356908 Ti
  atom 26.264418 1.486441 45.356908 Ti
  atom 24.258084 1.486441 45.356937 O
  atom 26.264441 0.000000 46.633675 O
  atom 22.981315 0.000000 47.363377 O
  atom 24.987671 1.486441 48.640114 O
  atom 26.264400 0.000000 48.640143 Ti
  atom 22.981337 1.486441 48.640143 Ti
  atom 20.975003 1.486441 48.640173 O
  atom 22.981360 0.000000 49.916910 O
  atom 26.264360 0.000000 50.646612 O
  atom 21.704591 1.486441 51.923349 O
  atom 22.981320 0.000000 51.923379 Ti
  atom 26.264383 1.486441 51.923379 Ti
  atom 24.258049 1.486441 51.923408 O
  atom 26.264405 0.000000 53.200145 O
  atom 22.981279 0.000000 53.929847 O
  atom 24.987636 1.486441 55.206584 O
  atom 26.264365 0.000000 55.206614 Ti
  atom 22.981302 1.486441 55.206614 Ti
  atom 20.974968 1.486441 55.206643 O
  atom 22.981325 0.000000 56.483381 O
  atom 22.981325 0.000000 57.483381 H
  atom 26.264366 0.000000 57.206614 O
  atom 26.264366 0.000000 58.206614 H
  atom 26.264466 0.000000 29.947200 H
  atom 22.981426 0.000000 30.223967 O
  atom 22.981426 0.000000 29.223967 H
  atom 26.264466 2.972883 30.947200 O
  atom 21.704696 4.459324 32.223938 O
  atom 22.981425 2.972883 32.223967 Ti
  atom 26.264488 4.459324 32.223967 Ti
  atom 24.258154 4.459324 32.223996 O
  atom 19.698384 2.972883 33.500734 O
  atom 22.981385 2.972883 34.230436 O
  atom 24.987742 4.459324 35.507173 O
  atom 26.264471 2.972883 35.507202 Ti
  atom 22.981408 4.459324 35.507202 Ti
  atom 20.975073 4.459324 35.507232 O
  atom 22.981430 2.972883 36.783969 O
  atom 26.264431 2.972883 37.513671 O
  atom 21.704661 4.459324 38.790408 O
  atom 22.981390 2.972883 38.790438 Ti
  atom 26.264453 4.459324 38.790438 Ti
  atom 24.258119 4.459324 38.790467 O
  atom 26.264476 2.972883 40.067204 O
  atom 22.981350 2.972883 40.796906 O
  atom 24.987707 4.459324 42.073643 O
  atom 26.264436 2.972883 42.073673 Ti
  atom 22.981372 4.459324 42.073673 Ti
  atom 20.975038 4.459324 42.073702 O
  atom 22.981395 2.972883 43.350440 O
  atom 26.264396 2.972883 44.080141 O
  atom 21.704626 4.459324 45.356879 O
  atom 22.981355 2.972883 45.356908 Ti
  atom 26.264418 4.459324 45.356908 Ti
  atom 24.258084 4.459324 45.356937 O
  atom 26.264441 2.972883 46.633675 O
  atom 22.981315 2.972883 47.363377 O
  atom 24.987671 4.459324 48.640114 O
  atom 26.264400 2.972883 48.640143 Ti
  atom 22.981337 4.459324 48.640143 Ti
  atom 20.975003 4.459324 48.640173 O
  atom 22.981360 2.972883 49.916910 O
  atom 26.264360 2.972883 50.646612 O
  atom 21.704591 4.459324 51.923349 O
  atom 22.981320 2.972883 51.923379 Ti
  atom 26.264383 4.459324 51.923379 Ti
  atom 24.258049 4.459324 51.923408 O
  atom 26.264405 2.972883 53.200145 O
  atom 22.981279 2.972883 53.929847 O
  atom 24.987636 4.459324 55.206584 O
  atom 26.264365 2.972883 55.206614 Ti
  atom 22.981302 4.459324 55.206614 Ti
  atom 20.974968 4.459324 55.206643 O
  atom 22.981325 2.972883 56.483381 O
  atom 22.981325 2.972883 57.483381 H
  atom 26.264366 2.972883 57.206614 O
  atom 26.264366 2.972883 58.206614 H
  atom 26.264466 2.972883 29.947200 H
  atom 22.981426 2.972883 30.223967 O
  atom 22.981426 2.972883 29.223967 H
  atom 26.264466 5.945765 30.947200 O
  atom 21.704696 7.432207 32.223938 O
  atom 22.981425 5.945765 32.223967 Ti
  atom 26.264488 7.432207 32.223967 Ti
  atom 24.258154 7.432207 32.223996 O
  atom 19.698384 5.945765 33.500734 O
  atom 22.981385 5.945765 34.230436 O
  atom 24.987742 7.432207 35.507173 O
  atom 26.264471 5.945765 35.507202 Ti
  atom 22.981408 7.432207 35.507202 Ti
  atom 20.975073 7.432207 35.507232 O
  atom 22.981430 5.945765 36.783969 O
  atom 26.264431 5.945765 37.513671 O
  atom 21.704661 7.432207 38.790408 O
  atom 22.981390 5.945765 38.790438 Ti
  atom 26.264453 7.432207 38.790438 Ti
  atom 24.258119 7.432207 38.790467 O
  atom 26.264476 5.945765 40.067204 O
  atom 22.981350 5.945765 40.796906 O
  atom 24.987707 7.432207 42.073643 O
  atom 26.264436 5.945765 42.073673 Ti
  atom 22.981372 7.432207 42.073673 Ti
  atom 20.975038 7.432207 42.073702 O
  atom 22.981395 5.945765 43.350440 O
  atom 26.264396 5.945765 44.080141 O
  atom 21.704626 7.432207 45.356879 O
  atom 22.981355 5.945765 45.356908 Ti
  atom 26.264418 7.432207 45.356908 Ti
  atom 24.258084 7.432207 45.356937 O
  atom 26.264441 5.945765 46.633675 O
  atom 22.981315 5.945765 47.363377 O
  atom 24.987671 7.432207 48.640114 O
  atom 26.264400 5.945765 48.640143 Ti
  atom 22.981337 7.432207 48.640143 Ti
  atom 20.975003 7.432207 48.640173 O
  atom 22.981360 5.945765 49.916910 O
  atom 26.264360 5.945765 50.646612 O
  atom 21.704591 7.432207 51.923349 O
  atom 22.981320 5.945765 51.923379 Ti
  atom 26.264383 7.432207 51.923379 Ti
  atom 24.258049 7.432207 51.923408 O
  atom 26.264405 5.945765 53.200145 O
  atom 22.981279 5.945765 53.929847 O
  atom 24.987636 7.432207 55.206584 O
  atom 26.264365 5.945765 55.206614 Ti
  atom 22.981302 7.432207 55.206614 Ti
  atom 20.974968 7.432207 55.206643 O
  atom 22.981325 5.945765 56.483381 O
  atom 22.981325 5.945765 57.483381 H
  atom 26.264366 5.945765 57.206614 O
  atom 26.264366 5.945765 58.206614 H
  atom 26.264466 5.945765 29.947200 H
  atom 22.981426 5.945765 30.223967 O
  atom 22.981426 5.945765 29.223967 H
  atom 26.264466 8.918648 30.947200 O
  atom 21.704696 10.405089 32.223938 O
  atom 22.981425 8.918648 32.223967 Ti
  atom 26.264488 10.405089 32.223967 Ti
  atom 24.258154 10.405089 32.223996 O
  atom 19.698384 8.918648 33.500734 O
  atom 22.981385 8.918648 34.230436 O
  atom 24.987742 10.405089 35.507173 O
  atom 26.264471 8.918648 35.507202 Ti
  atom 22.981408 10.405089 35.507202 Ti
  atom 20.975073 10.405089 35.507232 O
  atom 22.981430 8.918648 36.783969 O
  atom 26.264431 8.918648 37.513671 O
  atom 21.704661 10.405089 38.790408 O
  atom 22.981390 8.918648 38.790438 Ti
  atom 26.264453 10.405089 38.790438 Ti
  atom 24.258119 10.405089 38.790467 O
  atom 26.264476 8.918648 40.067204 O
  atom 22.981350 8.918648 40.796906 O
  atom 24.987707 10.405089 42.073643 O
  atom 26.264436 8.918648 42.073673 Ti
  atom 22.981372 10.405089 42.073673 Ti
  atom 20.975038 10.405089 42.073702 O
  atom 22.981395 8.918648 43.350440 O
  atom 26.264396 8.918648 44.080141 O
  atom 21.704626 10.405089 45.356879 O
  atom 22.981355 8.918648 45.356908 Ti
  atom 26.264418 10.405089 45.356908 Ti
  atom 24.258084 10.405089 45.356937 O
  atom 26.264441 8.918648 46.633675 O
  atom 22.981315 8.918648 47.363377 O
  atom 24.987671 10.405089 48.640114 O
  atom 26.264400 8.918648 48.640143 Ti
  atom 22.981337 10.405089 48.640143 Ti
  atom 20.975003 10.405089 48.640173 O
  atom 22.981360 8.918648 49.916910 O
  atom 26.264360 8.918648 50.646612 O
  atom 21.704591 10.405089 51.923349 O
  atom 22.981320 8.918648 51.923379 Ti
  atom 26.264383 10.405089 51.923379 Ti
  atom 24.258049 10.405089 51.923408 O
  atom 26.264405 8.918648 53.200145 O
  atom 22.981279 8.918648 53.929847 O
  atom 24.987636 10.405089 55.206584 O
  atom 26.264365 8.918648 55.206614 Ti
  atom 22.981302 10.405089 55.206614 Ti
  atom 20.974968 10.405089 55.206643 O
  atom 22.981325 8.918648 56.483381 O
  atom 22.981325 8.918648 57.483381 H
  atom 26.264366 8.918648 57.206614 O
  atom 26.264366 8.918648 58.206614 H
  atom 26.264466 8.918648 29.947200 H
  atom 22.981426 8.918648 30.223967 O
  atom 22.981426 8.918648 29.223967 H
  atom 26.264466 11.891531 30.947200 O
  atom 21.704696 13.377972 32.223938 O
  atom 22.981425 11.891531 32.223967 Ti
  atom 26.264488 13.377972 32.223967 Ti
  atom 24.258154 13.377972 32.223996 O
  atom 19.698384 11.891531 33.500734 O
  atom 22.981385 11.891531 34.230436 O
  atom 24.987742 13.377972 35.507173 O
  atom 26.264471 11.891531 35.507202 Ti
  atom 22.981408 13.377972 35.507202 Ti
  atom 20.975073 13.377972 35.507232 O
  atom 22.981430 11.891531 36.783969 O
  atom 26.264431 11.891531 37.513671 O
  atom 21.704661 13.377972 38.790408 O
  atom 22.981390 11.891531 38.790438 Ti
  atom 26.264453 13.377972 38.790438 Ti
  atom 24.258119 13.377972 38.790467 O
  atom 26.264476 11.891531 40.067204 O
  atom 22.981350 11.891531 40.796906 O
  atom 24.987707 13.377972 42.073643 O
  atom 26.264436 11.891531 42.073673 Ti
  atom 22.981372 13.377972 42.073673 Ti
  atom 20.975038 13.377972 42.073702 O
  atom 22.981395 11.891531 43.350440 O
  atom 26.264396 11.891531 44.080141 O
  atom 21.704626 13.377972 45.356879 O
  atom 22.981355 11.891531 45.356908 Ti
  atom 26.264418 13.377972 45.356908 Ti
  atom 24.258084 13.377972 45.356937 O
  atom 26.264441 11.891531 46.633675 O
  atom 22.981315 11.891531 47.363377 O
  atom 24.987671 13.377972 48.640114 O
  atom 26.264400 11.891531 48.640143 Ti
  atom 22.981337 13.377972 48.640143 Ti
  atom 20.975003 13.377972 48.640173 O
  atom 22.981360 11.891531 49.916910 O
  atom 26.264360 11.891531 50.646612 O
  atom 21.704591 13.377972 51.923349 O
  atom 22.981320 11.891531 51.923379 Ti
  atom 26.264383 13.377972 51.923379 Ti
  atom 24.258049 13.377972 51.923408 O
  atom 26.264405 11.891531 53.200145 O
  atom 22.981279 11.891531 53.929847 O
  atom 24.987636 13.377972 55.206584 O
  atom 26.264365 11.891531 55.206614 Ti
  atom 22.981302 13.377972 55.206614 Ti
  atom 20.974968 13.377972 55.206643 O
  atom 22.981325 11.891531 56.483381 O
  atom 22.981325 11.891531 57.483381 H
  atom 26.264366 11.891531 57.206614 O
  atom 26.264366 11.891531 58.206614 H
  atom 26.264466 11.891531 29.947200 H
  atom 22.981426 11.891531 30.223967 O
  atom 22.981426 11.891531 29.223967 H
  atom 26.264466 14.864413 30.947200 O
  atom 21.704696 16.350855 32.223938 O
  atom 22.981425 14.864413 32.223967 Ti
  atom 26.264488 16.350855 32.223967 Ti
  atom 24.258154 16.350855 32.223996 O
  atom 19.698384 14.864413 33.500734 O
  atom 22.981385 14.864413 34.230436 O
  atom 24.987742 16.350855 35.507173 O
  atom 26.264471 14.864413 35.507202 Ti
  atom 22.981408 16.350855 35.507202 Ti
  atom 20.975073 16.350855 35.507232 O
  atom 22.981430 14.864413 36.783969 O
  atom 26.264431 14.864413 37.513671 O
  atom 21.704661 16.350855 38.790408 O
  atom 22.981390 14.864413 38.790438 Ti
  atom 26.264453 16.350855 38.790438 Ti
  atom 24.258119 16.350855 38.790467 O
  atom 26.264476 14.864413 40.067204 O
  atom 22.981350 14.864413 40.796906 O
  atom 24.987707 16.350855 42.073643 O
  atom 26.264436 14.864413 42.073673 Ti
  atom 22.981372 16.350855 42.073673 Ti
  atom 20.975038 16.350855 42.073702 O
  atom 22.981395 14.864413 43.350440 O
  atom 26.264396 14.864413 44.080141 O
  atom 21.704626 16.350855 45.356879 O
  atom 22.981355 14.864413 45.356908 Ti
  atom 26.264418 16.350855 45.356908 Ti
  atom 24.258084 16.350855 45.356937 O
  atom 26.264441 14.864413 46.633675 O
  atom 22.981315 14.864413 47.363377 O
  atom 24.987671 16.350855 48.640114 O
  atom 26.264400 14.864413 48.640143 Ti
  atom 22.981337 16.350855 48.640143 Ti
  atom 20.975003 16.350855 48.640173 O
  atom 22.981360 14.864413 49.916910 O
  atom 26.264360 14.864413 50.646612 O
  atom 21.704591 16.350855 51.923349 O
  atom 22.981320 14.864413 51.923379 Ti
  atom 26.264383 16.350855 51.923379 Ti
  atom 24.258049 16.350855 51.923408 O
  atom 26.264405 14.864413 53.200145 O
  atom 22.981279 14.864413 53.929847 O
  atom 24.987636 16.350855 55.206584 O
  atom 26.264365 14.864413 55.206614 Ti
  atom 22.981302 16.350855 55.206614 Ti
  atom 20.974968 16.350855 55.206643 O
  atom 22.981325 14.864413 56.483381 O
[...]
  | This appears to be a direct band gap.
  However, this system has fractional occupation numbers. Since we use a finite k-point grid,
  this material is metallic within the approximate finite broadening function (occupation_type)
  applied to determine the occupation numbers.

  Total energy components:
  | Sum of eigenvalues            :     -306815.58447596 Ha    -8348876.83976753 eV
  | XC energy correction          :      -30956.87649355 Ha     -842379.46918513 eV
  | XC potential correction       :       40021.76865985 Ha     1089047.73537326 eV
  | Free-atom electrostatic energy:     -221235.52763764 Ha    -6020125.00760831 eV
  | Hartree energy correction     :       -1477.42341790 Ha      -40202.73669389 eV
  | Entropy correction            :          -0.00078900 Ha          -0.02146985 eV
  | ---------------------------
  | Total energy                  :     -520463.64336521 Ha   -14162536.31788160 eV
  | Total energy, T -> 0          :     -520463.64415421 Ha   -14162536.33935145 eV  <-- do not rely on this value for anything but (periodic) metals
  | Electronic free energy        :     -520463.64494321 Ha   -14162536.36082130 eV

  Derived energy quantities:
  | Kinetic energy                :      523991.36065904 Ha    14258530.38957132 eV
  | Electrostatic energy          :    -1013498.12753070 Ha   -27578687.23826779 eV
  | Energy correction for multipole
  | error in Hartree potential    :           4.94302569 Ha         134.50657264 eV
  | Sum of eigenvalues per atom                           :       -4831.52594894 eV
  | Total energy (T->0) per atom                          :       -8195.91223342 eV  <-- do not rely on this value for anything but (periodic) metals
  | Electronic free energy per atom                       :       -8195.91224585 eV
  Evaluating new KS density using the density matrix
  Evaluating density matrix
  Finished density matrix calculation
  | Time :    40.740 s
  | Time get_set_sparse_local_matrix_scalapack:     3.139142 s
  Time summed over all CPUs for getting density from density matrix: real work     1844.388 s, elapsed     2190.374 s
  Integration grid: deviation in total charge (<rho> - N_e) =   4.765752E-10

  Self-consistency convergence accuracy:
  | Change of charge density      :  0.3414E-02
  | Change of unmixed KS density  :  0.1399E-02
  | Change of sum of eigenvalues  : -0.4330E+01 eV
  | Change of total energy        : -0.3318E-02 eV


------------------------------------------------------------
  End self-consistency iteration #    81       :  max(cpu_time)    wall_clock(cpu1)
  | Time for this iteration                     :     1101.128 s        1101.213 s
  | Charge density update                       :       78.144 s          78.148 s
  | Density mixing & preconditioning            :      181.509 s         181.516 s
  | Hartree multipole update                    :        0.065 s           0.065 s
  | Hartree multipole summation                 :       11.103 s          11.103 s
  | Integration                                 :       65.360 s          65.362 s
  | Solution of K.-S. eqns.                     :      764.942 s         765.002 s
  | Total energy evaluation                     :        0.002 s           0.002 s

  Partial memory accounting:
  | Current value for overall tracked memory usage:
  |   Minimum:     2030.361 MB (on task 33)
  |   Maximum:     2039.988 MB (on task 24)
  |   Average:     2036.637 MB
  | Peak value for overall tracked memory usage:
  |   Minimum:     2063.581 MB (on task 33 after allocating zora_vector2)
  |   Maximum:     2101.936 MB (on task 11 after allocating zora_vector2)
  |   Average:     2091.164 MB
  | Largest tracked array allocation so far:
  |   Minimum:      480.500 MB (ovlp on task  0)
  |   Maximum:      480.500 MB (ovlp on task  0)
  |   Average:      480.500 MB
  Note:  These values currently only include a subset of arrays which are explicitly tracked.
  The "true" memory usage will be greater.
------------------------------------------------------------

------------------------------------------------------------
          Begin self-consistency iteration #   82

  Date     :  20250313, Time     :  142206.321
------------------------------------------------------------
  Pulay mixing of updated and previous charge densities.
  Available memory per node after mixing [GB]:    856.12
  Renormalizing the density to the exact electron count on the 3D integration grid.
  | Formal number of electrons (from input files) :   20096.0000000000
  | Integrated number of electrons on 3D grid     :   20096.0045402656
  | Charge integration error                      :       0.0045402656
  | Normalization factor for density and gradient :       0.9999997741

  Evaluating partitioned Hartree potential by multipole expansion.
  | Original multipole sum: apparent total charge =   0.100000E+01
  | Sum of charges compensated after spline to logarithmic grids =   0.411214E-02
  | Analytical far-field extrapolation by fixed multipoles:
  | Hartree multipole sum: apparent total charge =   0.100000E+01
  Summing up the Hartree potential.
  Time summed over all CPUs for potential: real work        9.529 s, elapsed       10.067 s
  | RMS charge density error from multipole expansion :   0.293075E+00
  | Average real-space part of the electrostatic potential :      0.21490648 eV

  Integrating Hamiltonian matrix: batch-based integration.
  Time summed over all CPUs for integration: real work     3745.069 s, elapsed     4150.556 s
  | Time get_set_sparse_local_matrix_scalapack:     0.694487 s

  Updating Kohn-Sham eigenvalues and eigenvectors using ELSI and the ELPA eigensolver.
  Starting ELPA eigensolver
  Finished transformation to standard eigenproblem
  | Time :   121.720 s
  Finished solving standard eigenproblem
  | Time :   573.396 s
  Finished back-transformation of eigenvectors
  | Time :    63.263 s

  Obtaining occupation numbers and electronic chemical potential using ELSI.
  | Note that, for insulating systems, the printed 'chemical potential' value is not uniquely defined.
  | It can be anywhere in the energy gap, as long as it correctly separates occupied and unoccupied states.
  | In systems with a gap, the physically relevant chemical potential is the VBM or HOMO.

  | Chemical potential (Fermi level):    -5.48829116 eV
  What follows are estimated values for band gap, HOMO, LUMO, etc.
  | They are estimated on a discrete k-point grid and not necessarily exact.
  | For converged numbers, create a DOS and/or band structure plot on a denser k-grid.

  Highest occupied state (VBM) at     -5.53460287 eV (relative to internal zero)
  | Occupation number:      1.80976795
  | K-point:       1 at    0.000000    0.000000    0.000000 (in units of recip. lattice)

  Lowest unoccupied state (CBM) at    -5.45658225 eV (relative to internal zero)
  | Occupation number:      0.36979171
  | K-point:       1 at    0.000000    0.000000    0.000000 (in units of recip. lattice)

  ESTIMATED overall HOMO-LUMO gap:      0.07802063 eV between HOMO at k-point 1 and LUMO at k-point 1
  | This appears to be a direct band gap.
  However, this system has fractional occupation numbers. Since we use a finite k-point grid,
  this material is metallic within the approximate finite broadening function (occupation_type)
  applied to determine the occupation numbers.

  Total energy components:
  | Sum of eigenvalues            :     -306815.52977640 Ha    -8348875.35131688 eV
  | XC energy correction          :      -30956.86535616 Ha     -842379.16612126 eV
  | XC potential correction       :       40021.75431074 Ha     1089047.34491410 eV
  | Free-atom electrostatic energy:     -221235.52763764 Ha    -6020125.00760831 eV
  | Hartree energy correction     :       -1477.47499086 Ha      -40204.14006555 eV
  | Entropy correction            :          -0.00078654 Ha          -0.02140289 eV
  | ---------------------------
  | Total energy                  :     -520463.64345033 Ha   -14162536.32019790 eV
  | Total energy, T -> 0          :     -520463.64423687 Ha   -14162536.34160079 eV  <-- do not rely on this value for anything but (periodic) metals
  | Electronic free energy        :     -520463.64502342 Ha   -14162536.36300368 eV

  Derived energy quantities:
  | Kinetic energy                :      523991.30727389 Ha    14258528.93688748 eV
  | Electrostatic energy          :    -1013498.08536806 Ha   -27578686.09096411 eV
  | Energy correction for multipole
  | error in Hartree potential    :           4.94248365 Ha         134.49182289 eV
  | Sum of eigenvalues per atom                           :       -4831.52508757 eV
  | Total energy (T->0) per atom                          :       -8195.91223472 eV  <-- do not rely on this value for anything but (periodic) metals
  | Electronic free energy per atom                       :       -8195.91224711 eV
  Evaluating new KS density using the density matrix
  Evaluating density matrix
  Finished density matrix calculation
  | Time :    39.719 s
  | Time get_set_sparse_local_matrix_scalapack:     4.484202 s
  Time summed over all CPUs for getting density from density matrix: real work     1841.090 s, elapsed     2188.860 s
  Integration grid: deviation in total charge (<rho> - N_e) =   5.493348E-10

  Self-consistency convergence accuracy:
  | Change of charge density      :  0.2978E-02
  | Change of unmixed KS density  :  0.6601E-03
  | Change of sum of eigenvalues  :  0.1488E+01 eV
  | Change of total energy        : -0.2316E-02 eV


------------------------------------------------------------
  End self-consistency iteration #    82       :  max(cpu_time)    wall_clock(cpu1)
  | Time for this iteration                     :     1098.551 s        1098.616 s
  | Charge density update                       :       78.444 s          78.448 s
  | Density mixing & preconditioning            :      180.571 s         180.578 s
  | Hartree multipole update                    :        0.066 s           0.066 s
  | Hartree multipole summation                 :       11.350 s          11.351 s
  | Integration                                 :       64.898 s          64.900 s
  | Solution of K.-S. eqns.                     :      763.214 s         763.256 s
  | Total energy evaluation                     :        0.002 s           0.002 s

  Partial memory accounting:
  | Current value for overall tracked memory usage:
  |   Minimum:     2030.361 MB (on task 33)
  |   Maximum:     2039.988 MB (on task 24)
  |   Average:     2036.637 MB
  | Peak value for overall tracked memory usage:
  |   Minimum:     2063.581 MB (on task 33 after allocating zora_vector2)
  |   Maximum:     2101.936 MB (on task 11 after allocating zora_vector2)
  |   Average:     2091.164 MB
  | Largest tracked array allocation so far:
  |   Minimum:      480.500 MB (ovlp on task  0)
  |   Maximum:      480.500 MB (ovlp on task  0)
  |   Average:      480.500 MB
  Note:  These values currently only include a subset of arrays which are explicitly tracked.
  The "true" memory usage will be greater.
------------------------------------------------------------

------------------------------------------------------------
          Begin self-consistency iteration #   83

  Date     :  20250313, Time     :  144024.937
------------------------------------------------------------
  Pulay mixing of updated and previous charge densities.
  Available memory per node after mixing [GB]:    853.90
  Renormalizing the density to the exact electron count on the 3D integration grid.
  | Formal number of electrons (from input files) :   20096.0000000000
  | Integrated number of electrons on 3D grid     :   20095.9969583758
  | Charge integration error                      :      -0.0030416242
  | Normalization factor for density and gradient :       1.0000001514

  Evaluating partitioned Hartree potential by multipole expansion.
  | Original multipole sum: apparent total charge =   0.100000E+01
  | Sum of charges compensated after spline to logarithmic grids =   0.411621E-02
  | Analytical far-field extrapolation by fixed multipoles:
  | Hartree multipole sum: apparent total charge =   0.100000E+01
  Summing up the Hartree potential.
  Time summed over all CPUs for potential: real work        9.517 s, elapsed       10.058 s
  | RMS charge density error from multipole expansion :   0.293053E+00
  | Average real-space part of the electrostatic potential :      0.21488940 eV

  Integrating Hamiltonian matrix: batch-based integration.
  Time summed over all CPUs for integration: real work     3747.005 s, elapsed     4162.702 s
  | Time get_set_sparse_local_matrix_scalapack:     0.698523 s

  Updating Kohn-Sham eigenvalues and eigenvectors using ELSI and the ELPA eigensolver.
  Starting ELPA eigensolver
  Finished transformation to standard eigenproblem
  | Time :   122.001 s
  Finished solving standard eigenproblem
  | Time :   573.518 s
  Finished back-transformation of eigenvectors
  | Time :    63.364 s

  Obtaining occupation numbers and electronic chemical potential using ELSI.
  | Note that, for insulating systems, the printed 'chemical potential' value is not uniquely defined.
  | It can be anywhere in the energy gap, as long as it correctly separates occupied and unoccupied states.
  | In systems with a gap, the physically relevant chemical potential is the VBM or HOMO.

  | Chemical potential (Fermi level):    -5.48766106 eV
  What follows are estimated values for band gap, HOMO, LUMO, etc.
  | They are estimated on a discrete k-point grid and not necessarily exact.
  | For converged numbers, create a DOS and/or band structure plot on a denser k-grid.

  Highest occupied state (VBM) at     -5.53404625 eV (relative to internal zero)
  | Occupation number:      1.81047013
  | K-point:       1 at    0.000000    0.000000    0.000000 (in units of recip. lattice)

  Lowest unoccupied state (CBM) at    -5.45579528 eV (relative to internal zero)
  | Occupation number:      0.36742861
  | K-point:       1 at    0.000000    0.000000    0.000000 (in units of recip. lattice)

  ESTIMATED overall HOMO-LUMO gap:      0.07825097 eV between HOMO at k-point 1 and LUMO at k-point 1
  | This appears to be a direct band gap.
  However, this system has fractional occupation numbers. Since we use a finite k-point grid,
  this material is metallic within the approximate finite broadening function (occupation_type)
  applied to determine the occupation numbers.

  Total energy components:
  | Sum of eigenvalues            :     -306815.22928907 Ha    -8348867.17464058 eV
  | XC energy correction          :      -30956.86398251 Ha     -842379.12874223 eV
  | XC potential correction       :       40021.75227210 Ha     1089047.28943997 eV
  | Free-atom electrostatic energy:     -221235.52763764 Ha    -6020125.00760831 eV
  | Hartree energy correction     :       -1477.77460536 Ha      -40212.29299069 eV
  | Entropy correction            :          -0.00078204 Ha          -0.02128029 eV
  | ---------------------------
  | Total energy                  :     -520463.64324248 Ha   -14162536.31454184 eV
  | Total energy, T -> 0          :     -520463.64402451 Ha   -14162536.33582213 eV  <-- do not rely on this value for anything but (periodic) metals
  | Electronic free energy        :     -520463.64480655 Ha   -14162536.35710243 eV

  Derived energy quantities:
  | Kinetic energy                :      523991.39847792 Ha    14258531.41867527 eV
  | Electrostatic energy          :    -1013498.17773788 Ha   -27578688.60447488 eV
  | Energy correction for multipole
  | error in Hartree potential    :           4.94209824 Ha         134.48133549 eV
  | Sum of eigenvalues per atom                           :       -4831.52035569 eV
  | Total energy (T->0) per atom                          :       -8195.91223138 eV  <-- do not rely on this value for anything but (periodic) metals
  | Electronic free energy per atom                       :       -8195.91224369 eV
  Evaluating new KS density using the density matrix
  Evaluating density matrix
  Finished density matrix calculation
  | Time :    38.849 s
  | Time get_set_sparse_local_matrix_scalapack:     4.976681 s
  Time summed over all CPUs for getting density from density matrix: real work     1831.863 s, elapsed     2177.319 s
  Integration grid: deviation in total charge (<rho> - N_e) =   4.256435E-10

  Self-consistency convergence accuracy:
  | Change of charge density      :  0.2434E-02
  | Change of unmixed KS density  :  0.8499E-03
  | Change of sum of eigenvalues  :  0.8177E+01 eV
  | Change of total energy        :  0.5656E-02 eV


------------------------------------------------------------
  End self-consistency iteration #    83       :  max(cpu_time)    wall_clock(cpu1)
  | Time for this iteration                     :     1100.038 s        1100.104 s
  | Charge density update                       :       77.886 s          77.889 s
  | Density mixing & preconditioning            :      181.072 s         181.079 s
  | Hartree multipole update                    :        0.070 s           0.070 s
  | Hartree multipole summation                 :       11.338 s          11.339 s
  | Integration                                 :       65.088 s          65.090 s
  | Solution of K.-S. eqns.                     :      764.569 s         764.617 s
  | Total energy evaluation                     :        0.005 s           0.005 s

  Partial memory accounting:
  | Current value for overall tracked memory usage:
  |   Minimum:     2030.361 MB (on task 33)
  |   Maximum:     2039.988 MB (on task 24)
  |   Average:     2036.637 MB
  | Peak value for overall tracked memory usage:
  |   Minimum:     2063.581 MB (on task 33 after allocating zora_vector2)
  |   Maximum:     2101.936 MB (on task 11 after allocating zora_vector2)
  |   Average:     2091.164 MB
  | Largest tracked array allocation so far:
  |   Minimum:      480.500 MB (ovlp on task  0)
  |   Maximum:      480.500 MB (ovlp on task  0)
  |   Average:      480.500 MB
  Note:  These values currently only include a subset of arrays which are explicitly tracked.
  The "true" memory usage will be greater.
------------------------------------------------------------

------------------------------------------------------------
          Begin self-consistency iteration #   84

  Date     :  20250313, Time     :  145845.042
------------------------------------------------------------
  Pulay mixing of updated and previous charge densities.
  Available memory per node after mixing [GB]:    847.87
  Renormalizing the density to the exact electron count on the 3D integration grid.
  | Formal number of electrons (from input files) :   20096.0000000000
  | Integrated number of electrons on 3D grid     :   20096.0011406121
  | Charge integration error                      :       0.0011406121
  | Normalization factor for density and gradient :       0.9999999432

  Evaluating partitioned Hartree potential by multipole expansion.
  | Original multipole sum: apparent total charge =   0.100000E+01
  | Sum of charges compensated after spline to logarithmic grids =   0.411704E-02
  | Analytical far-field extrapolation by fixed multipoles:
  | Hartree multipole sum: apparent total charge =   0.100000E+01
  Summing up the Hartree potential.
  Time summed over all CPUs for potential: real work        9.469 s, elapsed       10.003 s
  | RMS charge density error from multipole expansion :   0.293036E+00
  | Average real-space part of the electrostatic potential :      0.21488188 eV

  Integrating Hamiltonian matrix: batch-based integration.
  Time summed over all CPUs for integration: real work     3746.485 s, elapsed     4161.872 s
  | Time get_set_sparse_local_matrix_scalapack:     0.699203 s

  Updating Kohn-Sham eigenvalues and eigenvectors using ELSI and the ELPA eigensolver.
  Starting ELPA eigensolver
  Finished transformation to standard eigenproblem
  | Time :   119.606 s
