------------------------------------------------------------
          Invoking FHI-aims ...

          When using FHI-aims, please cite the following reference:

            Volker Blum, Ralf Gehrke, Felix Hanke, Paula Havu,
            Ville Havu, Xinguo Ren, Karsten Reuter, and Matthias Scheffler,
            'Ab Initio Molecular Simulations with Numeric Atom-Centered Orbitals',
            Computer Physics Communications 180, 2175-2196 (2009)

          In addition, many other developments in FHI-aims are likely important for
          your particular application. If so, please cite them. A partial list of references
          is written at the end of this file. Thank you for giving credit to the authors
          of these developments.

          For general information about FHI-aims please find us at

            https://fhi-aims.org

          Online tutorials can be found at

            https://fhi-aims-club.gitlab.io/tutorials/tutorials-overview/

          For any questions about FHI-aims, please visit our slack channel at

            https://fhi-aims.slack.com

          and our main development and support site at

            https://aims-git.rz-berlin.mpg.de .

          The latter site, in particular, has a wiki to collect information, as well
          as an issue tracker to log discussions, suggest improvements, and report issues
          or bugs. https://aims-git.rz-berlin.mpg.de is also the main development site
          of the project and all new and updated code versions can be obtained there.
          Please send an email to aims-coordinators@fhi-berlin.mpg.de and we will add
          you to these sites. They are for you and everyone is welcome there.

------------------------------------------------------------



  Date     :  20241210, Time     :  124447.351
  Time zero on CPU 1             :   0.362308000000000E+00  s.
  Internal wall clock time zero  :           503066687.351  s.

  FHI-aims created a unique identifier for this run for later identification
  aims_uuid : 7B809332-647A-4CC4-AFB3-4A865F3728F8

  Build configuration of the current instance of FHI-aims
  -------------------------------------------------------
  FHI-aims version      : 240605
  Commit number         : b001b2e18
  CMake host system     : Linux-6.5.0-41-generic
  CMake version         : 3.22.1
  Fortran compiler      : /opt/intel/oneapi/mpi/2021.12/bin/mpiifort (IntelLLVM) version 2024.1.0
  Fortran compiler flags: -fc=ifx -O3 -ip -fp-model precise
  C compiler            : /opt/intel/oneapi/mpi/2021.12/bin/mpiicc (IntelLLVM) version 2024.1.0
  C compiler flags      : -cc=icx -O3 -ip -fp-model precise -std=gnu99
  C++ compiler          : /opt/intel/oneapi/mpi/2021.12/bin/mpiicpc (IntelLLVM) version 2024.1.0
  C++ compiler flags    : -cxx=icpx -O3 -ip -fp-model precise -std=c++11
  HIP compiler          :
  HIP compiler flags    :
  HIP GPU arch          :
  Using MPI
  Using ScaLAPACK
  Using LibXC
  Using i-PI
  Using RLSY
  Linking against: /opt/intel/oneapi/mkl/2024.1/lib/intel64/libmkl_intel_lp64.so
                   /opt/intel/oneapi/mkl/2024.1/lib/intel64/libmkl_sequential.so
                   /opt/intel/oneapi/mkl/2024.1/lib/intel64/libmkl_core.so
                   /opt/intel/oneapi/mkl/2024.1/lib/intel64/libmkl_blacs_intelmpi_lp64.so
                   /opt/intel/oneapi/mkl/2024.1/lib/intel64/libmkl_scalapack_lp64.so
                   /opt/intel/oneapi/mkl/2024.1/lib/intel64/libmkl_core.so

  Using       32 parallel tasks.
  Task        0 on host RSL-arvutus reporting.
  Task        1 on host RSL-arvutus reporting.
  Task        2 on host RSL-arvutus reporting.
  Task        3 on host RSL-arvutus reporting.
  Task        4 on host RSL-arvutus reporting.
  Task        5 on host RSL-arvutus reporting.
  Task        6 on host RSL-arvutus reporting.
  Task        7 on host RSL-arvutus reporting.
  Task        8 on host RSL-arvutus reporting.
  Task        9 on host RSL-arvutus reporting.
  Task       10 on host RSL-arvutus reporting.
  Task       11 on host RSL-arvutus reporting.
  Task       12 on host RSL-arvutus reporting.
  Task       13 on host RSL-arvutus reporting.
  Task       14 on host RSL-arvutus reporting.
  Task       15 on host RSL-arvutus reporting.
  Task       16 on host RSL-arvutus reporting.
  Task       17 on host RSL-arvutus reporting.
  Task       18 on host RSL-arvutus reporting.
  Task       19 on host RSL-arvutus reporting.
  Task       20 on host RSL-arvutus reporting.
  Task       21 on host RSL-arvutus reporting.
  Task       22 on host RSL-arvutus reporting.
  Task       23 on host RSL-arvutus reporting.
  Task       24 on host RSL-arvutus reporting.
  Task       25 on host RSL-arvutus reporting.
  Task       26 on host RSL-arvutus reporting.
  Task       27 on host RSL-arvutus reporting.
  Task       28 on host RSL-arvutus reporting.
  Task       29 on host RSL-arvutus reporting.
  Task       30 on host RSL-arvutus reporting.
  Task       31 on host RSL-arvutus reporting.

  Memory overcommitment is allowed on your operating system.

  Obtaining array dimensions for all initial allocations:
  
  -----------------------------------------------------------------------
  Parsing control.in (first pass over file, find array dimensions only).
  The contents of control.in will be repeated verbatim below
  unless switched off by setting 'verbatim_writeout .false.' .
  in the first line of control.in .
  -----------------------------------------------------------------------
  
    xc              pbe
    relativistic    zora scalar 1.0e-12
    KS_method	  serial
    k_grid          8 8 1
    spin		  collinear
    default_initial_moment	0.0
    charge          0.1
    restart_write_only   restart
    output          Mulliken
  
  
  ################################################################################
  #
  #  FHI-aims code project
  #  VB, Fritz-Haber Institut, 2009
  #
  #  Suggested "light" defaults for Ti atom (to be pasted into control.in file)
  #  Be sure to double-check any results obtained with these settings for post-processing,
  #  e.g., with the "tight" defaults and larger basis sets.
  #
  ################################################################################
    species        Ti
  #     global species definitions
      nucleus             22
      mass                47.867
  #
      l_hartree           4
  #
      cut_pot             3.5          1.5  1.0
      basis_dep_cutoff    1e-4
  #
      radial_base         48 5.0
      radial_multiplier   1
      angular_grids       specified
        division   0.5171   50
        division   0.9824  110
        division   1.2917  194
        division   1.4940  302
  #      division   1.6934  434
  #      division   1.8425  590
  #      division   2.1901  770
  #      division   2.2896  974
  #      division   2.8244 1202
  #      outer_grid  974
        outer_grid  302
  ################################################################################
  #
  #  Definition of "minimal" basis
  #
  ################################################################################
  #     valence basis states
      valence      4  s   2.
      valence      3  p   6.
      valence      3  d   2.
  #     ion occupancy
      ion_occ      4  s   1.
      ion_occ      3  p   6.
      ion_occ      3  d   1.
  ################################################################################
  #
  #  Suggested additional basis functions. For production calculations,
  #  uncomment them one after another (the most important basis functions are
  #  listed first).
  #
  #  Constructed for dimers: 1.6 A, 1.85 A, 2.5 A, 3.25 A, 4.25 A
  #
  ################################################################################
  #  "First tier" - improvements: -396.25 meV to -19.41 meV
       hydro 4 f 8
       hydro 3 d 2.7
       ionic 4 p auto
  #     hydro 5 g 11.6
       ionic 4 s auto
  #  "Second tier" - improvements: -16.30 meV to -2.03 meV
  #     hydro 3 d 4.4
  #     hydro 6 h 16
  #     hydro 4 f 9.4
  #     hydro 4 p 4.5
  #     hydro 1 s 0.5
  #  "Third tier" - improvements: -6.28 meV to -0.37 meV
  #     hydro 4 d 6.4
  #     hydro 4 f 10
  #     hydro 5 g 12
  #     hydro 2 p 1.7
  #     hydro 6 h 16.4
  #     hydro 4 s 3.8
  #  Further basis functions: -0.45 meV and smaller improvements
  #     hydro 3 d 8.8
  #     hydro 5 p 18
  #     hydro 4 f 22.4
  #     hydro 5 f 7.2  # -0.16 meV
  #     hydro 3 d 2.1  # -0.11 meV
  #     hydro 5 g 7.4  # -0.09 meV
  
  
  ################################################################################
  #
  #  FHI-aims code project
  #  VB, Fritz-Haber Institut, 2009
  #
  #  Suggested "light" defaults for O atom (to be pasted into control.in file)
  #  Be sure to double-check any results obtained with these settings for post-processing,
  #  e.g., with the "tight" defaults and larger basis sets.
  #
  ################################################################################
    species        O
  #     global species definitions
      nucleus             8
      mass                15.9994
  #
      l_hartree           4
  #
      cut_pot             3.5  1.5  1.0
      basis_dep_cutoff    1e-4
  #
      radial_base         36 5.0
      radial_multiplier   1
       angular_grids specified
        division   0.2659   50
        division   0.4451  110
        division   0.6052  194
        division   0.7543  302
  #      division   0.8014  434
  #      division   0.8507  590
  #      division   0.8762  770
  #      division   0.9023  974
  #      division   1.2339 1202
  #      outer_grid 974
        outer_grid 302
  ################################################################################
  #
  #  Definition of "minimal" basis
  #
  ################################################################################
  #     valence basis states
      valence      2  s   2.
      valence      2  p   4.
  #     ion occupancy
      ion_occ      2  s   1.
      ion_occ      2  p   3.
  ################################################################################
  #
  #  Suggested additional basis functions. For production calculations,
  #  uncomment them one after another (the most important basis functions are
  #  listed first).
  #
  #  Constructed for dimers: 1.0 A, 1.208 A, 1.5 A, 2.0 A, 3.0 A
  #
  ################################################################################
  #  "First tier" - improvements: -699.05 meV to -159.38 meV
       hydro 2 p 1.8
       hydro 3 d 7.6
       hydro 3 s 6.4
  #  "Second tier" - improvements: -49.91 meV to -5.39 meV
  #     hydro 4 f 11.6
  #     hydro 3 p 6.2
  #     hydro 3 d 5.6
  #     hydro 5 g 17.6
  #     hydro 1 s 0.75
  #  "Third tier" - improvements: -2.83 meV to -0.50 meV
  #     ionic 2 p auto
  #     hydro 4 f 10.8
  #     hydro 4 d 4.7
  #     hydro 2 s 6.8
  #  "Fourth tier" - improvements: -0.40 meV to -0.12 meV
  #     hydro 3 p 5
  #     hydro 3 s 3.3
  #     hydro 5 g 15.6
  #     hydro 4 f 17.6
  #     hydro 4 d 14
  # Further basis functions - -0.08 meV and below
  #     hydro 3 s 2.1
  #     hydro 4 d 11.6
  #     hydro 3 p 16
  #     hydro 2 s 17.2
  
  ################################################################################
  #
  #  "Core" basis functions and numerical settings for O atom.
  #  Based on “tight” defaults (V. Blum, 2009).
  #
  ################################################################################
    species        O1
  #     global species definitions
      nucleus             8.1
      mass                15.9994
  #
      l_hartree           6
  #
      cut_pot             4.0  2.0  1.0
      basis_dep_cutoff    1e-4
  #
      radial_base         36 7.0
      radial_multiplier   2
       angular_grids specified
        division   0.1817   50
        division   0.3417  110
        division   0.4949  194
        division   0.6251  302
        division   0.8014  434
  #      division   0.8507  590
  #      division   0.8762  770
  #      division   0.9023  974
  #      division   1.2339 1202
  #      outer_grid 974
        outer_grid  434
  ################################################################################
  #
  #  Definition of "minimal" basis
  #
  ################################################################################
  #     valence basis states
      valence      2  s   2.
      valence      2  p   4.1
  #     ion occupancy
      ion_occ      2  s   1.
      ion_occ      2  p   3.
  ################################################################################
  #
  #  Suggested additional basis functions. For production calculations,
  #  uncomment them one after another (the most important basis functions are
  #  listed first).
  #
  #  Constructed for dimers: 1.0 A, 1.208 A, 1.5 A, 2.0 A, 3.0 A
  #
  ################################################################################
  #  "First tier" - improvements: -699.05 meV to -159.38 meV
       hydro 2 p 1.8
       hydro 3 d 7.6
       hydro 3 s 6.4
  #  "Second tier" - improvements: -49.91 meV to -5.39 meV
       hydro 4 f 11.6
       hydro 3 p 6.2
       hydro 3 d 5.6
       hydro 5 g 17.6
       hydro 1 s 0.75
  #  "Third tier" - improvements: -2.83 meV to -0.50 meV
       ionic 2 p auto
       hydro 4 f 10.8
       hydro 4 d 4.7
       hydro 2 s 6.8
  #  "Fourth tier" - improvements: -0.40 meV to -0.12 meV
  #     hydro 3 p 5
  #     hydro 3 s 3.3
  #     hydro 5 g 15.6
  #     hydro 4 f 17.6
  #     hydro 4 d 14
  # Further basis functions - -0.08 meV and below
  #     hydro 3 s 2.1
  #     hydro 4 d 11.6
  #     hydro 3 p 16
  #     hydro 2 s 17.2
  
  # Additional basis functions for atom with a core hole
       hydro 1 s 12.0
       hydro 1 s 10.0
       hydro 1 s 6.0
       hydro 2 s 10.0
       hydro 2 p 8.0
       hydro 2 p 6.0
       hydro 3 d 8.0
  ################################################################################
  #
  #  FHI-aims code project
  #  VB, Fritz-Haber Institut, 2009
  #
  #  Suggested "light" defaults for H atom (to be pasted into control.in file)
  #  Be sure to double-check any results obtained with these settings for post-processing,
  #  e.g., with the "tight" defaults and larger basis sets.
  #
  ################################################################################
    species        H
  #     global species definitions
      nucleus             1
      mass                1.00794
  #
      l_hartree           4
  #
      cut_pot             3.5  1.5  1.0
      basis_dep_cutoff    1e-4
  #
      radial_base         24 5.0
      radial_multiplier   1
      angular_grids       specified
        division   0.2421   50
        division   0.3822  110
        division   0.4799  194
        division   0.5341  302
  #      division   0.5626  434
  #      division   0.5922  590
  #      division   0.6542  770
  #      division   0.6868 1202
  #      outer_grid  770
        outer_grid  302
  ################################################################################
  #
  #  Definition of "minimal" basis
  #
  ################################################################################
  #     valence basis states
      valence      1  s   1.
  #     ion occupancy
      ion_occ      1  s   0.5
  ################################################################################
  #
  #  Suggested additional basis functions. For production calculations,
  #  uncomment them one after another (the most important basis functions are
  #  listed first).
  #
  #  Basis constructed for dimers: 0.5 A, 0.7 A, 1.0 A, 1.5 A, 2.5 A
  #
  ################################################################################
  #  "First tier" - improvements: -1014.90 meV to -62.69 meV
       hydro 2 s 2.1
       hydro 2 p 3.5
  #  "Second tier" - improvements: -12.89 meV to -1.83 meV
  #     hydro 1 s 0.85
  #     hydro 2 p 3.7
  #     hydro 2 s 1.2
  #     hydro 3 d 7
  #  "Third tier" - improvements: -0.25 meV to -0.12 meV
  #     hydro 4 f 11.2
  #     hydro 3 p 4.8
  #     hydro 4 d 9
  #     hydro 3 s 3.2
  
  -----------------------------------------------------------------------
  Completed first pass over input file control.in .
  -----------------------------------------------------------------------
  
  
  -----------------------------------------------------------------------
  Parsing geometry.in (first pass over file, find array dimensions only).
  The contents of geometry.in will be repeated verbatim below
  unless switched off by setting 'verbatim_writeout .false.' .
  in the first line of geometry.in .
  -----------------------------------------------------------------------
  
  lattice_vector 6.566127 0.000000 0.000000
  lattice_vector 0.000000 5.945766 0.000000
  lattice_vector 0.000000 0.000000 22.332457
  
  atom 6.566088 0.000000 8.231677 O
  atom 2.006320 1.486442 9.508423 O
  atom 3.283044 0.000000 9.508446 Ti
  atom 6.566107 1.486442 9.508446 Ti
  atom 4.559775 1.486442 9.508468 O
  atom 0.000007 0.000000 10.785214 O
  atom 3.283004 0.000000 11.514905 O
  atom 5.289363 1.486442 12.791652 O
  atom 6.566094 0.000000 12.791674 Ti
  atom 3.283031 1.486442 12.791674 Ti
  atom 1.276691 1.486442 12.791719 O
  atom 3.283050 0.000000 14.068443 O
  atom 6.566088 2.972883 8.231677 O
  atom 2.006320 4.459325 9.508423 O
  atom 3.283044 2.972883 9.508446 Ti
  atom 6.566107 4.459325 9.508446 Ti
  atom 4.559775 4.459325 9.508468 O
  atom 0.000007 2.972883 10.785214 O
  atom 3.283004 2.972883 11.514905 O1
  atom 5.289363 4.459325 12.791652 O
  atom 6.566094 2.972883 12.791674 Ti
  atom 3.283031 4.459325 12.791674 Ti
  atom 1.276691 4.459325 12.791719 O
  atom 3.283050 2.972883 14.068443 O
  atom 3.283050 2.972883 15.068443 H
  atom 3.283050 0.000000 15.068443 H
  atom 6.566088 0.000000 7.231677 H
  atom 6.566088 2.972883 7.231677 H
  atom 6.566088 2.972883 14.791674 O
  atom 6.566088 0.000000 14.791674 O
  atom 6.566088 2.972883 15.791674 H
  atom 6.566088 0.000000 15.791674 H
  atom 3.283050 2.972883 7.508446 O
  atom 3.283050 0.000000 7.508446 O
  atom 3.283050 2.972883 6.508446 H
  atom 3.283050 0.000000 6.508446 H
  
  -----------------------------------------------------------------------
  Completed first pass over input file geometry.in .
  -----------------------------------------------------------------------
  

  Basic array size parameters:
  | Number of species                 :        4
  | Number of atoms                   :       36
  | Number of lattice vectors         :        3
  | Max. basis fn. angular momentum   :        4
  | Max. atomic/ionic basis occupied n:        4
  | Max. number of basis fn. types    :        3
  | Max. radial fns per species/type  :       18
  | Max. logarithmic grid size        :     1383
  | Max. radial integration grid size :       73
  | Max. angular integration grid size:      434
  | Max. angular grid division number :        8
  | Radial grid for Hartree potential :     1383
  | Number of spin channels           :        2

------------------------------------------------------------
          Reading file control.in.
------------------------------------------------------------
  XC: Using PBE gradient-corrected functionals.
  Scalar relativistic treatment of kinetic energy: ZORA.
  Threshold value for ZORA:   0.100000E-11
  Kohn-Sham eigenvalues and eigenfunctions calculated by LAPACK via ELSI.
  Found k-point grid:         8         8         1
  Spin treatment: Spin density functional theory - collinear spins.
  Initial spin moment per atom:   0.0000
  Charged system requested: Charge =   0.100000E+00.
  Writing restart information to file restart000
  Mulliken charge analysis will be performed and summarised to the main output.
  Full Mulliken charge analysis will be written to file 'Mulliken.out'.
 
  Reading configuration options for species Ti                  .
  | Found nuclear charge :  22.0000
  | Found atomic mass :    47.8670000000000      amu
  | Found l_max for Hartree potential  :   4
  | Found cutoff potl. onset [A], width [A], scale factor :    3.50000    1.50000    1.00000
  | Threshold for basis-dependent cutoff potential is   0.100000E-03
  | Found data for basic radial integration grid :    48 points, outermost radius =    5.000 A
  | Found multiplier for basic radial grid :   1
  | Found angular grid specification: user-specified.
  | Specified grid contains     5 separate shells.
  | Check grid settings after all constraints further below.
  | Found free-atom valence shell :  4 s   2.000
  | Found free-atom valence shell :  3 p   6.000
  | Found free-atom valence shell :  3 d   2.000
  | Found free-ion valence shell :  4 s   1.000
  | Found free-ion valence shell :  3 p   6.000
  | Found free-ion valence shell :  3 d   1.000
  | Found hydrogenic basis function :  4 f   8.000
  | Found hydrogenic basis function :  3 d   2.700
  | Found ionic basis function :  4 p , default cutoff radius.
  | Found ionic basis function :  4 s , default cutoff radius.
 | Encountered keyword species, ending the description of species Ti                  .
  Species Ti                  : Missing cutoff potential type.
  Defaulting to exp(1/x)/(1-x)^2 type cutoff potential.
  Species Ti: No 'logarithmic' tag. Using default grid for free atom:
  | Default logarithmic grid data [bohr] : 0.1000E-03 0.1000E+03 0.1012E+01
  | Will include ionic basis functions of  2.0-fold positive Ti                   ion.
  Species Ti: On-site basis accuracy parameter (for Gram-Schmidt orthonormalisation) not specified.
  Using default value basis_acc =  0.1000000E-03.
  Species Ti                  : Using default innermost maximum threshold i_radial=  2 for radial functions.
  Species Ti                  : Default cutoff onset for free atom density etc. : 0.35000000E+01 AA.
  Species Ti                  : Basic radial grid will be enhanced according to radial_multiplier =   1, to contain    48 grid points.
 
  Reading configuration options for species O                   .
  | Found nuclear charge :   8.0000
  | Found atomic mass :    15.9994000000000      amu
  | Found l_max for Hartree potential  :   4
  | Found cutoff potl. onset [A], width [A], scale factor :    3.50000    1.50000    1.00000
  | Threshold for basis-dependent cutoff potential is   0.100000E-03
  | Found data for basic radial integration grid :    36 points, outermost radius =    5.000 A
  | Found multiplier for basic radial grid :   1
  | Found angular grid specification: user-specified.
  | Specified grid contains     5 separate shells.
  | Check grid settings after all constraints further below.
  | Found free-atom valence shell :  2 s   2.000
  | Found free-atom valence shell :  2 p   4.000
  | Found free-ion valence shell :  2 s   1.000
  | Found free-ion valence shell :  2 p   3.000
  | Found hydrogenic basis function :  2 p   1.800
  | Found hydrogenic basis function :  3 d   7.600
  | Found hydrogenic basis function :  3 s   6.400
 | Encountered keyword species, ending the description of species O                   .
  Species O                   : Missing cutoff potential type.
  Defaulting to exp(1/x)/(1-x)^2 type cutoff potential.
  Species O : No 'logarithmic' tag. Using default grid for free atom:
  | Default logarithmic grid data [bohr] : 0.1000E-03 0.1000E+03 0.1012E+01
  Species O : On-site basis accuracy parameter (for Gram-Schmidt orthonormalisation) not specified.
  Using default value basis_acc =  0.1000000E-03.
  Species O                   : Using default innermost maximum threshold i_radial=  2 for radial functions.
  Species O                   : Default cutoff onset for free atom density etc. : 0.35000000E+01 AA.
  Species O                   : Basic radial grid will be enhanced according to radial_multiplier =   1, to contain    36 grid points.
 
  Reading configuration options for species O1                  .
  | Found nuclear charge :   8.1000
  | Found atomic mass :    15.9994000000000      amu
  | Found l_max for Hartree potential  :   6
  | Found cutoff potl. onset [A], width [A], scale factor :    4.00000    2.00000    1.00000
  | Threshold for basis-dependent cutoff potential is   0.100000E-03
  | Found data for basic radial integration grid :    36 points, outermost radius =    7.000 A
  | Found multiplier for basic radial grid :   2
  | Found angular grid specification: user-specified.
  | Specified grid contains     6 separate shells.
  | Check grid settings after all constraints further below.
  | Found free-atom valence shell :  2 s   2.000
  | Found free-atom valence shell :  2 p   4.100
  | Found free-ion valence shell :  2 s   1.000
  | Found free-ion valence shell :  2 p   3.000
  | Found hydrogenic basis function :  2 p   1.800
  | Found hydrogenic basis function :  3 d   7.600
  | Found hydrogenic basis function :  3 s   6.400
  | Found hydrogenic basis function :  4 f  11.600
  | Found hydrogenic basis function :  3 p   6.200
  | Found hydrogenic basis function :  3 d   5.600
  | Found hydrogenic basis function :  5 g  17.600
  | Found hydrogenic basis function :  1 s   0.750
  | Found ionic basis function :  2 p , default cutoff radius.
  | Found hydrogenic basis function :  4 f  10.800
  | Found hydrogenic basis function :  4 d   4.700
  | Found hydrogenic basis function :  2 s   6.800
  | Found hydrogenic basis function :  1 s  12.000
  | Found hydrogenic basis function :  1 s  10.000
  | Found hydrogenic basis function :  1 s   6.000
  | Found hydrogenic basis function :  2 s  10.000
  | Found hydrogenic basis function :  2 p   8.000
  | Found hydrogenic basis function :  2 p   6.000
  | Found hydrogenic basis function :  3 d   8.000
 | Encountered keyword species, ending the description of species O1                  .
  Species O1                  : Missing cutoff potential type.
  Defaulting to exp(1/x)/(1-x)^2 type cutoff potential.
  Species O1: No 'logarithmic' tag. Using default grid for free atom:
  | Default logarithmic grid data [bohr] : 0.1000E-03 0.1000E+03 0.1012E+01
  | Will include ionic basis functions of  2.1-fold positive O1                   ion.
  Species O1: On-site basis accuracy parameter (for Gram-Schmidt orthonormalisation) not specified.
  Using default value basis_acc =  0.1000000E-03.
  Species O1                  : Using default innermost maximum threshold i_radial=  2 for radial functions.
  Species O1                  : Default cutoff onset for free atom density etc. : 0.40000000E+01 AA.
  Species O1                  : Basic radial grid will be enhanced according to radial_multiplier =   2, to contain    73 grid points.
 
  Reading configuration options for species H                   .
  | Found nuclear charge :   1.0000
  | Found atomic mass :    1.00794000000000      amu
  | Found l_max for Hartree potential  :   4
  | Found cutoff potl. onset [A], width [A], scale factor :    3.50000    1.50000    1.00000
  | Threshold for basis-dependent cutoff potential is   0.100000E-03
  | Found data for basic radial integration grid :    24 points, outermost radius =    5.000 A
  | Found multiplier for basic radial grid :   1
  | Found angular grid specification: user-specified.
  | Specified grid contains     5 separate shells.
  | Check grid settings after all constraints further below.
  | Found free-atom valence shell :  1 s   1.000
  | Found free-ion valence shell :  1 s   0.500
  | Found hydrogenic basis function :  2 s   2.100
  | Found hydrogenic basis function :  2 p   3.500
  Species H                   : Missing cutoff potential type.
  Defaulting to exp(1/x)/(1-x)^2 type cutoff potential.
  Species H : No 'logarithmic' tag. Using default grid for free atom:
  | Default logarithmic grid data [bohr] : 0.1000E-03 0.1000E+03 0.1012E+01
  Species H : On-site basis accuracy parameter (for Gram-Schmidt orthonormalisation) not specified.
  Using default value basis_acc =  0.1000000E-03.
  Species H                   : Using default innermost maximum threshold i_radial=  2 for radial functions.
  Species H                   : Default cutoff onset for free atom density etc. : 0.35000000E+01 AA.
  Species H                   : Basic radial grid will be enhanced according to radial_multiplier =   1, to contain    24 grid points.
 
  Finished reading input file 'control.in'.
 
------------------------------------------------------------


------------------------------------------------------------
          Reading geometry description geometry.in.
------------------------------------------------------------
  | The smallest distance between any two atoms is         1.00000000 AA.
  | The first atom of this pair is atom number                     33 .
  | The second atom of this pair is atom number                    35 .
  | Wigner-Seitz cell of the first atom image           0     0     0 .
  | (The Wigner-Seitz cell of the second atom is 0 0 0  by definition.)

  Symmetry information by spglib:
  | Precision set to  0.1E-04
  | Number of Operations  : 2
  | Space group           : 6
  | International         : Pm      /op
  | Schoenflies           : Cs^1
  Input structure read successfully.
  The structure contains       36 atoms,  and a total of        344.000 electrons.

  Input geometry:
  | Unit cell:
  |        6.56612700        0.00000000        0.00000000
  |        0.00000000        5.94576600        0.00000000
  |        0.00000000        0.00000000       22.33245700
  | Atomic structure:
  |       Atom                x [A]            y [A]            z [A]
  |    1: Species O             6.56608800        0.00000000        8.23167700
  |    2: Species O             2.00632000        1.48644200        9.50842300
  |    3: Species Ti            3.28304400        0.00000000        9.50844600
  |    4: Species Ti            6.56610700        1.48644200        9.50844600
  |    5: Species O             4.55977500        1.48644200        9.50846800
  |    6: Species O             0.00000700        0.00000000       10.78521400
  |    7: Species O             3.28300400        0.00000000       11.51490500
  |    8: Species O             5.28936300        1.48644200       12.79165200
  |    9: Species Ti            6.56609400        0.00000000       12.79167400
  |   10: Species Ti            3.28303100        1.48644200       12.79167400
  |   11: Species O             1.27669100        1.48644200       12.79171900
  |   12: Species O             3.28305000        0.00000000       14.06844300
  |   13: Species O             6.56608800        2.97288300        8.23167700
  |   14: Species O             2.00632000        4.45932500        9.50842300
  |   15: Species Ti            3.28304400        2.97288300        9.50844600
  |   16: Species Ti            6.56610700        4.45932500        9.50844600
  |   17: Species O             4.55977500        4.45932500        9.50846800
  |   18: Species O             0.00000700        2.97288300       10.78521400
  |   19: Species O1            3.28300400        2.97288300       11.51490500
  |   20: Species O             5.28936300        4.45932500       12.79165200
  |   21: Species Ti            6.56609400        2.97288300       12.79167400
  |   22: Species Ti            3.28303100        4.45932500       12.79167400
  |   23: Species O             1.27669100        4.45932500       12.79171900
  |   24: Species O             3.28305000        2.97288300       14.06844300
  |   25: Species H             3.28305000        2.97288300       15.06844300
  |   26: Species H             3.28305000        0.00000000       15.06844300
  |   27: Species H             6.56608800        0.00000000        7.23167700
  |   28: Species H             6.56608800        2.97288300        7.23167700
  |   29: Species O             6.56608800        2.97288300       14.79167400
  |   30: Species O             6.56608800        0.00000000       14.79167400
  |   31: Species H             6.56608800        2.97288300       15.79167400
  |   32: Species H             6.56608800        0.00000000       15.79167400
  |   33: Species O             3.28305000        2.97288300        7.50844600
  |   34: Species O             3.28305000        0.00000000        7.50844600
  |   35: Species H             3.28305000        2.97288300        6.50844600
  |   36: Species H             3.28305000        0.00000000        6.50844600

  Lattice parameters for 3D lattice (in Angstroms) :     6.566127    5.945766   22.332457
  Angle(s) between unit vectors (in degrees)       :    90.000000   90.000000   90.000000


  Quantities derived from the lattice vectors (in Angstrom^-1):
  | Reciprocal lattice vector 1:  0.956909  0.000000  0.000000
  | Reciprocal lattice vector 2:  0.000000  1.056750  0.000000
  | Reciprocal lattice vector 3:  0.000000  0.000000  0.281348
  | Unit cell volume                               :   0.871874E+03  Angstrom^3

  Fractional coordinates:
                         L1                L2                L3
       atom_frac         0.99999406        0.00000000        0.36859702  O
       atom_frac         0.30555608        0.25000008        0.42576699  O
       atom_frac         0.49999703        0.00000000        0.42576802  Ti
       atom_frac         0.99999695        0.25000008        0.42576802  Ti
       atom_frac         0.69443905        0.25000008        0.42576901  O
       atom_frac         0.00000107        0.00000000        0.48293898  O
       atom_frac         0.49999094        0.00000000        0.51561299  O
       atom_frac         0.80555295        0.25000008        0.57278301  O
       atom_frac         0.99999497        0.00000000        0.57278400  Ti
       atom_frac         0.49999505        0.25000008        0.57278400  Ti
       atom_frac         0.19443593        0.25000008        0.57278601  O
       atom_frac         0.49999794        0.00000000        0.62995500  O
       atom_frac         0.99999406        0.50000000        0.36859702  O
       atom_frac         0.30555608        0.75000008        0.42576699  O
       atom_frac         0.49999703        0.50000000        0.42576802  Ti
       atom_frac         0.99999695        0.75000008        0.42576802  Ti
       atom_frac         0.69443905        0.75000008        0.42576901  O
       atom_frac         0.00000107        0.50000000        0.48293898  O
       atom_frac         0.49999094        0.50000000        0.51561299  O1
       atom_frac         0.80555295        0.75000008        0.57278301  O
       atom_frac         0.99999497        0.50000000        0.57278400  Ti
       atom_frac         0.49999505        0.75000008        0.57278400  Ti
       atom_frac         0.19443593        0.75000008        0.57278601  O
       atom_frac         0.49999794        0.50000000        0.62995500  O
       atom_frac         0.49999794        0.50000000        0.67473288  H
       atom_frac         0.49999794        0.00000000        0.67473288  H
       atom_frac         0.99999406        0.00000000        0.32381914  H
       atom_frac         0.99999406        0.50000000        0.32381914  H
       atom_frac         0.99999406        0.50000000        0.66233975  O
       atom_frac         0.99999406        0.00000000        0.66233975  O
       atom_frac         0.99999406        0.50000000        0.70711763  H
       atom_frac         0.99999406        0.00000000        0.70711763  H
       atom_frac         0.49999794        0.50000000        0.33621227  O
       atom_frac         0.49999794        0.00000000        0.33621227  O
       atom_frac         0.49999794        0.50000000        0.29143439  H
       atom_frac         0.49999794        0.00000000        0.29143439  H

  Initial moments and charges:
  |  Atom   Moment         Charge        Species
  |     1   0.000000E+00   0.000000E+00   O
  |     2   0.000000E+00   0.000000E+00   O
  |     3   0.000000E+00   0.000000E+00   Ti
  |     4   0.000000E+00   0.000000E+00   Ti
  |     5   0.000000E+00   0.000000E+00   O
  |     6   0.000000E+00   0.000000E+00   O
  |     7   0.000000E+00   0.000000E+00   O
  |     8   0.000000E+00   0.000000E+00   O
  |     9   0.000000E+00   0.000000E+00   Ti
  |    10   0.000000E+00   0.000000E+00   Ti
  |    11   0.000000E+00   0.000000E+00   O
  |    12   0.000000E+00   0.000000E+00   O
  |    13   0.000000E+00   0.000000E+00   O
  |    14   0.000000E+00   0.000000E+00   O
  |    15   0.000000E+00   0.000000E+00   Ti
  |    16   0.000000E+00   0.000000E+00   Ti
  |    17   0.000000E+00   0.000000E+00   O
  |    18   0.000000E+00   0.000000E+00   O
  |    19   0.000000E+00   0.000000E+00   O1
  |    20   0.000000E+00   0.000000E+00   O
  |    21   0.000000E+00   0.000000E+00   Ti
  |    22   0.000000E+00   0.000000E+00   Ti
  |    23   0.000000E+00   0.000000E+00   O
  |    24   0.000000E+00   0.000000E+00   O
  |    25   0.000000E+00   0.000000E+00   H
  |    26   0.000000E+00   0.000000E+00   H
  |    27   0.000000E+00   0.000000E+00   H
  |    28   0.000000E+00   0.000000E+00   H
  |    29   0.000000E+00   0.000000E+00   O
  |    30   0.000000E+00   0.000000E+00   O
  |    31   0.000000E+00   0.000000E+00   H
  |    32   0.000000E+00   0.000000E+00   H
  |    33   0.000000E+00   0.000000E+00   O
  |    34   0.000000E+00   0.000000E+00   O
  |    35   0.000000E+00   0.000000E+00   H
  |    36   0.000000E+00   0.000000E+00   H

  Slab Identifier: This is Z-oriented slab and maximum thickness of the vacuum is: 13.049 Angstrom.
 
  Finished reading input file 'geometry.in'.
 

 
  Consistency checks for stacksize environment parameter are next.
 
  | Maximum stacksize for task 0: unlimited
  | Maximum stacksize for task 1: unlimited
  | Maximum stacksize for task 2: unlimited
  | Maximum stacksize for task 3: unlimited
  | Maximum stacksize for task 4: unlimited
  | Maximum stacksize for task 5: unlimited
  | Maximum stacksize for task 6: unlimited
  | Maximum stacksize for task 7: unlimited
  | Maximum stacksize for task 8: unlimited
  | Maximum stacksize for task 9: unlimited
  | Maximum stacksize for task 10: unlimited
  | Maximum stacksize for task 11: unlimited
  | Maximum stacksize for task 12: unlimited
  | Maximum stacksize for task 13: unlimited
  | Maximum stacksize for task 14: unlimited
  | Maximum stacksize for task 15: unlimited
  | Maximum stacksize for task 16: unlimited
  | Maximum stacksize for task 17: unlimited
  | Maximum stacksize for task 18: unlimited
  | Maximum stacksize for task 19: unlimited
  | Maximum stacksize for task 20: unlimited
  | Maximum stacksize for task 21: unlimited
  | Maximum stacksize for task 22: unlimited
  | Maximum stacksize for task 23: unlimited
  | Maximum stacksize for task 24: unlimited
  | Maximum stacksize for task 25: unlimited
  | Maximum stacksize for task 26: unlimited
  | Maximum stacksize for task 27: unlimited
  | Maximum stacksize for task 28: unlimited
  | Maximum stacksize for task 29: unlimited
  | Maximum stacksize for task 30: unlimited
  | Maximum stacksize for task 31: unlimited
  | Current stacksize for task 0: unlimited
  | Current stacksize for task 1: unlimited
  | Current stacksize for task 2: unlimited
  | Current stacksize for task 3: unlimited
  | Current stacksize for task 4: unlimited
  | Current stacksize for task 5: unlimited
  | Current stacksize for task 6: unlimited
  | Current stacksize for task 7: unlimited
  | Current stacksize for task 8: unlimited
  | Current stacksize for task 9: unlimited
  | Current stacksize for task 10: unlimited
  | Current stacksize for task 11: unlimited
  | Current stacksize for task 12: unlimited
  | Current stacksize for task 13: unlimited
  | Current stacksize for task 14: unlimited
  | Current stacksize for task 15: unlimited
  | Current stacksize for task 16: unlimited
  | Current stacksize for task 17: unlimited
  | Current stacksize for task 18: unlimited
  | Current stacksize for task 19: unlimited
  | Current stacksize for task 20: unlimited
  | Current stacksize for task 21: unlimited
  | Current stacksize for task 22: unlimited
  | Current stacksize for task 23: unlimited
  | Current stacksize for task 24: unlimited
  | Current stacksize for task 25: unlimited
  | Current stacksize for task 26: unlimited
  | Current stacksize for task 27: unlimited
  | Current stacksize for task 28: unlimited
  | Current stacksize for task 29: unlimited
  | Current stacksize for task 30: unlimited
  | Current stacksize for task 31: unlimited
 
  Consistency checks for the contents of control.in are next.
 
  MPI_IN_PLACE appears to work with this MPI implementation.
  | Keeping use_mpi_in_place .true. (see manual).
  Target number of points in a grid batch is not set. Defaulting to  100
  Method for grid partitioning is not set. Defaulting to parallel hash+maxmin partitioning.
  Batch size limit is not set. Defaulting to    200
  By default, will store active basis functions for each batch.
  If in need of memory, prune_basis_once .false. can be used to disable this option.
  communication_type for Hartree potential was not specified.
  Defaulting to calc_hartree .
  Defaulting to Pulay charge density mixer.
  Pulay mixer: Number of relevant iterations not set.
  Defaulting to    8 iterations.
  Pulay mixer: Number of initial linear mixing iterations not set.
  Defaulting to    0 iterations.
  Work space size for distributed Hartree potential not set.
  Defaulting to   0.200000E+03 MB.
  Mixing parameter for charge density mixing has not been set.
  Using default: charge_mix_param =     0.0500.
  The mixing parameter will be adjusted in iteration number     2 of each s.c.f. cycle (i.e., each geometry step).
  Mixing parameter for spin density mixing has not been set.
  Using charge_mix_param as default:     0.0500.
  Algorithm-dependent basis array size parameters:
  | n_max_pulay                         :        8
  Maximum number of self-consistency iterations not provided.
  Presetting  1000 iterations.
  Presetting      1001 iterations before the initial mixing cycle
  is restarted anyway using the sc_init_iter criterion / keyword.
  Presetting a factor      1.000 between actual scf density residual
  and density convergence criterion sc_accuracy_rho below which sc_init_iter
  takes no effect.
 * No s.c.f. convergence criteria (sc_accuracy_*) were provided in control.in.
 * The run will proceed with a reasonable default guess, but please check whether.
 * the s.c.f. cycles seem to take too much or too little time.
  Calculation of forces was not defined in control.in. No forces will be calculated.
  Geometry relaxation not requested: no relaxation will be performed.
 * Notice: The s.c.f. convergence criterion sc_accuracy_rho was not provided.
 * We used to stop in this case, and ask the user to provide reasonable
 * scf convergence criteria. However, this led some users to employ criteria
 * that led to extremely long run times, e.g., for simple relaxation.
 * We now preset a default value for sc_accuracy_rho if it is not set.
 * You may still wish to check if this setting is too tight or too loose for your needs.
 * Based on n_atoms and forces and force-correction status, FHI-aims chose sc_accuracy_rho =  0.244949E-05 .
  No accuracy limit for integral partition fn. given. Defaulting to  0.1000E-14.
  No threshold value for u(r) in integrations given. Defaulting to  0.1000E-05.
  No occupation type (smearing scheme) given. Defaulting to Gaussian broadening, width =  0.1000E-01 eV.
  The width will be adjusted in iteration number     2 of each s.c.f. cycle (i.e., each geometry step).
  No accuracy for occupation numbers given. Defaulting to  0.1000E-12.
  No threshold value for occupation numbers given. Defaulting to  0.0000E+00.
  No accuracy for fermi level given. Defaulting to  0.1000E-19.
  Maximum # of iterations to find E_F not set. Defaulting to  200.
  Will not use alltoall communication since running on < 1024 CPUs.
  Threshold for basis singularities not set.
  Default threshold for basis singularities:  0.1000E-04
  partition_type (choice of integration weights) for integrals was not specified.
  | Using a version of the partition function of Stratmann and coworkers ('stratmann_sparse').
  | At each grid point, the set of atoms used to build the partition table is smoothly restricted to
  | only those atoms whose free-atom density would be non-zero at that grid point.
  Partitioning for Hartree potential was not defined. Using partition_type for integrals.
  | Adjusted default value of keyword multip_moments_threshold to:       0.10000000E-11
  | This value may affect high angular momentum components of the Hartree potential in periodic systems.
  Angular momentum expansion for Kerker preconditioner not set explicitly.
  | Using default value of   0
  No explicit requirement for turning off preconditioner.
  | By default, it will be turned off when the charge convergence reaches
  | sc_accuracy_rho  =   0.244949E-05
  No special mixing parameter while Kerker preconditioner is on.
  Using default: charge_mix_param =     0.0500.
  No q(lm)/r^(l+1) cutoff set for long-range Hartree potential.
  | Using default value of  0.100000E-09 .
  | Verify using the multipole_threshold keyword.
  Defaulting to new monopole extrapolation.
  Density update method: automatic selection selected.
  Using density matrix based charge density update.
  Using density matrix based charge density update.
  Using packed matrix style: index .
  Defaulting to use time-reversal symmetry for k-point grid.
  Charge integration errors on the 3D integration grid will be compensated
  by explicit normalization and distribution of residual charges.
  Use the "compensate_multipole_errors" flag to change this behaviour.
  Set 'collect_eigenvectors' to be '.true.' for all serial calculations. This is mandatory.
  Set 'collect_eigenvectors' to be '.true.' for KS_method lapack_fast and serial.
  Found potential conflicts with setting 'use_local_index' for this calculation. Will not set it.
 
  Consistency checks for the contents of geometry.in are next.
 

  Range separation radius for Ewald summation (hartree_convergence_parameter):      4.16785308 bohr.
 * Warning: Initial charge and total charge of the system are inconsistent.
 * Selected charge in control.in:     0.1000* Sum of initial charges in geometry.in:     0.0000
  Number of empty states per atom not set in control.in - providing a guess from actual geometry.
  | Total number of empty states used during s.c.f. cycle:      116
  If you use a very high smearing, use empty_states (per atom!) in control.in to increase this value.

  Structure-dependent array size parameters: 
  | Number of distinct atom types in initial rho :        4
  | Maximum number of distinct radial functions  :       42
  | Maximum number of basis functions            :      624
  | Number of Kohn-Sham states (occupied + empty):      288
------------------------------------------------------------
  After read_input_data [GB]:   1028.50

  Performing system and environment tests:
  *** Environment variable OMP_NUM_THREADS is not set
  *** For performance reasons you might want to set it to 1
  | Checking for ScaLAPACK...
  | Testing pdtran()...
  | All pdtran() tests passed.
  After prepare_system [GB]:   1028.35

------------------------------------------------------------
          Preparing all fixed parts of the calculation.
------------------------------------------------------------
  Determining machine precision:
    2.225073858507201E-308
  Setting up grids for atomic and cluster calculations.

  Creating wave function, potential, and density for free atoms.
  Runtime choices for atomic solver:
  | atomic solver xc        : PBE
  | compute density gradient: 1
  | compute kinetic density : F

  Species: Ti

  List of occupied orbitals and eigenvalues:
    n    l              occ      energy [Ha]    energy [eV]
    1    0           2.0000      -179.959082     -4896.9358
    2    0           2.0000       -19.727662      -536.8170
    3    0           2.0000        -2.283029       -62.1244
    4    0           2.0000        -0.148384        -4.0377
    2    1           6.0000       -16.317278      -444.0157
    3    1           6.0000        -1.409348       -38.3503
    3    2           2.0000        -0.139340        -3.7916


  Species: O

  List of occupied orbitals and eigenvalues:
    n    l              occ      energy [Ha]    energy [eV]
    1    0           2.0000       -18.926989      -515.0296
    2    0           2.0000        -0.880247       -23.9527
    2    1           4.0000        -0.331514        -9.0210


  Species: O1

  List of occupied orbitals and eigenvalues:
    n    l              occ      energy [Ha]    energy [eV]
    1    0           2.0000       -19.443516      -529.0850
    2    0           2.0000        -0.901438       -24.5294
    2    1           4.1000        -0.339232        -9.2310


  Species: H

  List of occupied orbitals and eigenvalues:
    n    l              occ      energy [Ha]    energy [eV]
    1    0           1.0000        -0.237593        -6.4652

  Spin-polarized or charged system:
  Charge density initialized according to selected moments and charges.

  Creating spin-polarized density from free atoms.

  Species: O
  Charge:   0.000000
  Moment:   0.000000

  List of occupied orbitals and eigenvalues:
    n    l      energy [Ha]    energy [eV]    occupation
  Spin-up
    1    0       -18.926989      -515.0296     1.00000000
    2    0        -0.880247       -23.9527     1.00000000
    2    1        -0.331514        -9.0210     2.00000000
  Spin-down
    1    0       -18.926989      -515.0296     1.00000000
    2    0        -0.880247       -23.9527     1.00000000
    2    1        -0.331514        -9.0210     2.00000000


  Species: Ti
  Charge:   0.000000
  Moment:   0.000000

  List of occupied orbitals and eigenvalues:
    n    l      energy [Ha]    energy [eV]    occupation
  Spin-up
    1    0      -179.959082     -4896.9358     1.00000000
    2    0       -19.727662      -536.8170     1.00000000
    3    0        -2.283029       -62.1244     1.00000000
    4    0        -0.148384        -4.0377     1.00000000
    2    1       -16.317278      -444.0157     3.00000000
    3    1        -1.409348       -38.3503     3.00000000
    3    2        -0.139340        -3.7916     1.00000000
  Spin-down
    1    0      -179.959082     -4896.9358     1.00000000
    2    0       -19.727662      -536.8170     1.00000000
    3    0        -2.283029       -62.1244     1.00000000
    4    0        -0.148384        -4.0377     1.00000000
    2    1       -16.317278      -444.0157     3.00000000
    3    1        -1.409348       -38.3503     3.00000000
    3    2        -0.139340        -3.7916     1.00000000


  Species: O1
  Charge:   0.000000
  Moment:   0.000000

  List of occupied orbitals and eigenvalues:
    n    l      energy [Ha]    energy [eV]    occupation
  Spin-up
    1    0       -19.443516      -529.0850     1.00000000
    2    0        -0.901438       -24.5294     1.00000000
    2    1        -0.339232        -9.2310     2.05000000
  Spin-down
    1    0       -19.443516      -529.0850     1.00000000
    2    0        -0.901438       -24.5294     1.00000000
    2    1        -0.339232        -9.2310     2.05000000


  Species: H
  Charge:   0.000000
  Moment:   0.000000

  List of occupied orbitals and eigenvalues:
    n    l      energy [Ha]    energy [eV]    occupation
  Spin-up
    1    0        -0.237593        -6.4652     0.50000000
  Spin-down
    1    0        -0.237593        -6.4652     0.50000000


  Adding cutoff potential to free-atom effective potential.
  Creating fixed part of basis set: Ionic, confined, hydrogenic.
 
  Ti                   ion:

  List of free ionic orbitals and eigenvalues:
    n    l      energy [Ha]    energy [eV]
    1    0      -180.819616     -4920.3521
    2    0       -20.608761      -560.7929
    3    0        -3.115729       -84.7833
    4    0        -0.697188       -18.9715
    2    1       -17.196209      -467.9327
    3    1        -2.231296       -60.7167
    3    2        -0.911363       -24.7995


  List of ionic basis orbitals and eigenvalues:
    n    l      energy [Ha]    energy [eV]    outer radius [A]
    4    1        -0.517739       -14.0884       4.592117
    4    0        -0.696824       -18.9615       4.536321

 
  Ti                   hydrogenic:
 
  List of hydrogenic basis orbitals: 
    n    l      effective z      eigenvalue [eV]  inner max. [A]     outer max. [A]     outer radius [A]   
    4    3         8.000000       -54.4222           1.059019           1.059019           4.267343
    3    2         2.700000       -10.7798           1.726925           1.726925           4.592117
 
 
  O                    hydrogenic:
 
  List of hydrogenic basis orbitals: 
    n    l      effective z      eigenvalue [eV]  inner max. [A]     outer max. [A]     outer radius [A]   
    2    1         1.800000       -10.9749           1.164242           1.164242           4.578029
    3    2         7.600000       -87.3180           0.624125           0.624125           3.251020
    3    0         6.400000       -61.9207           0.061167           1.081902           4.001998
 
 
  O1                   ion:

  List of free ionic orbitals and eigenvalues:
    n    l      energy [Ha]    energy [eV]
    1    0       -21.112423      -574.4983
    2    0        -2.242749       -61.0283
    2    1        -1.673061       -45.5263


  List of ionic basis orbitals and eigenvalues:
    n    l      energy [Ha]    energy [eV]    outer radius [A]
    2    1        -1.673055       -45.5262       3.497755

 
  O1                   hydrogenic:
 
  List of hydrogenic basis orbitals: 
    n    l      effective z      eigenvalue [eV]  inner max. [A]     outer max. [A]     outer radius [A]   
    2    1         1.800000       -11.0118           1.178329           1.178329           5.431529
    3    2         7.600000       -87.3182           0.624002           0.624002           3.540777
    3    0         6.400000       -61.9209           0.061155           1.081688           4.305727
    4    3        11.600000      -114.4238           0.731486           0.731486           3.584329
    3    1         6.200000       -58.1113           0.255630           1.030066           4.305727
    3    2         5.600000       -47.4081           0.847066           0.847066           4.412300
    5    4        17.600000      -168.5799           0.749592           0.749592           3.371799
    1    0         0.750000        -7.6499           0.705145           0.705145           5.431529
    4    3        10.800000       -99.1854           0.787158           0.787158           3.763959
    4    2         4.700000       -18.6841           0.758812           2.365340           5.498337
    2    0         6.800000      -157.2818           0.059678           0.406783           2.739079
    1    0        12.000000     -1959.2197           0.043962           0.043962           0.816563
    1    0        10.000000     -1360.5692           0.052810           0.052810           0.980908
    1    0         6.000000      -489.8049           0.088248           0.088248           1.560915
    2    0        10.000000      -340.1423           0.040357           0.278468           2.093154
    2    1         8.000000      -217.6911           0.265179           0.265179           2.365340
    2    1         6.000000      -122.4512           0.351279           0.351279           2.841399
    3    2         8.000000       -96.7515           0.594223           0.594223           3.455255
 
 
  H                    hydrogenic:
 
  List of hydrogenic basis orbitals: 
    n    l      effective z      eigenvalue [eV]  inner max. [A]     outer max. [A]     outer radius [A]   
    2    0         2.100000       -14.9728           0.193243           1.317208           4.583499
    2    1         3.500000       -41.6669           0.602369           0.602369           3.723403
 
  Creating atomic-like basis functions for current effective potential.

  Species Ti                  :

  List of atomic basis orbitals and eigenvalues:
    n    l      energy [Ha]    energy [eV]    outer radius [A]
    1    0      -179.959082     -4896.9358       0.490254
    2    0       -19.727662      -536.8170       1.491292
    3    0        -2.283029       -62.1244       4.014314
    4    0        -0.148384        -4.0377       4.592117
    2    1       -16.317278      -444.0157       1.585290
    3    1        -1.409348       -38.3503       4.267343
    3    2        -0.139340        -3.7916       4.536321


  Species O                   :

  List of atomic basis orbitals and eigenvalues:
    n    l      energy [Ha]    energy [eV]    outer radius [A]
    1    0       -18.926989      -515.0296       1.415765
    2    0        -0.880247       -23.9527       4.413171
    2    1        -0.331514        -9.0210       4.522403


  Species O1                  :

  List of atomic basis orbitals and eigenvalues:
    n    l      energy [Ha]    energy [eV]    outer radius [A]
    1    0       -19.443516      -529.0850       1.398286
    2    0        -0.901438       -24.5294       5.047388
    2    1        -0.339232        -9.2310       5.300339


  Species H                   :

  List of atomic basis orbitals and eigenvalues:
    n    l      energy [Ha]    energy [eV]    outer radius [A]
    1    0        -0.237593        -6.4652       4.527807

  Assembling full basis from fixed parts.
  | Species Ti :   atomic orbital   1 s accepted.
  | Species Ti :   atomic orbital   2 s accepted.
  | Species Ti :   atomic orbital   3 s accepted.
  | Species Ti :    ionic orbital   4 s accepted.
  | Species Ti :   atomic orbital   4 s accepted.
  | Species Ti :   atomic orbital   2 p accepted.
  | Species Ti :   atomic orbital   3 p accepted.
  | Species Ti :    ionic orbital   4 p accepted.
  | Species Ti :   atomic orbital   3 d accepted.
  | Species Ti :    hydro orbital   3 d accepted.
  | Species Ti :    hydro orbital   4 f accepted.
  | Species O :   atomic orbital   1 s accepted.
  | Species O :    hydro orbital   3 s accepted.
  | Species O :   atomic orbital   2 s accepted.
  | Species O :   atomic orbital   2 p accepted.
  | Species O :    hydro orbital   2 p accepted.
  | Species O :    hydro orbital   3 d accepted.
  | Species O1 :    hydro orbital   1 s accepted.
  | Species O1 :    hydro orbital   1 s accepted.
  | Species O1 :   atomic orbital   1 s accepted.
  | Species O1 :    hydro orbital   1 s accepted.
  | Species O1 :    hydro orbital   2 s accepted.
  | Species O1 :    hydro orbital   2 s accepted.
  | Species O1 :    hydro orbital   3 s accepted.
  | Species O1 :   atomic orbital   2 s accepted.
  | Species O1 :    hydro orbital   1 s accepted.
  | Species O1 :    hydro orbital   2 p accepted.
  | Species O1 :    hydro orbital   2 p accepted.
  | Species O1 :    ionic orbital   2 p accepted.
  | Species O1 :    hydro orbital   3 p accepted.
  | Species O1 :   atomic orbital   2 p accepted.
  | Species O1 :    hydro orbital   2 p accepted.
  | Species O1 :    hydro orbital   3 d accepted.
  | Species O1 :    hydro orbital   3 d accepted.
  | Species O1 :    hydro orbital   3 d accepted.
  | Species O1 :    hydro orbital   4 d accepted.
  | Species O1 :    hydro orbital   4 f accepted.
  | Species O1 :    hydro orbital   4 f accepted.
  | Species O1 :    hydro orbital   5 g accepted.
  | Species H :   atomic orbital   1 s accepted.
  | Species H :    hydro orbital   2 s accepted.
  | Species H :    hydro orbital   2 p accepted.
 
  Basis size parameters after reduction:
  | Total number of radial functions:       42
  | Total number of basis functions :      624
 
  Per-task memory consumption for arrays in subroutine allocate_ext:
  |          11.174656MB.
  Testing on-site integration grid accuracy.
  |  Species  Function  <phi|h_atom|phi> (log., in eV)  <phi|h_atom|phi> (rad., in eV)
           1        1              -4896.9357674450              -4896.9322838106
           1        2               -536.8170048508               -536.8169722776
           1        3                -62.1243896260                -62.1243889401
           1        4                 -3.2653235630                 -3.2692838824
           1        5                  6.7987747276                  6.5460721871 ***
           1        6               -444.0157161949               -444.0157165643
           1        7                -38.3503235548                -38.3503234985
           1        8                  0.2923930877                  0.2745948114
           1        9                 -3.7933400649                 -3.7959244171
           1       10                  6.3288803616                  6.2510614935 ***
           1       11                 27.8451455747                 27.8452636415
           2       12               -515.0295626295               -515.0294562869
           2       13                 15.1698434419                 15.1699322205
           2       14                -21.6038822678                -21.6039118108
           2       15                 -9.0211123393                 -9.0212703513
           2       16                  8.3047696391                  8.2854840999
           2       17                 45.8428042125                 45.8427461223
           3       18               -297.9424497070               -297.9307546811
           3       19               1645.1607047806               1645.2197751407 ***
           3       20               2119.2738154539               2119.3436317389 ***
           3       21               3026.0387037457               3025.6851308905 ***
           3       22               3253.4141389026               3250.3969556677 ***
           3       23               2486.1613909613               2479.9209551817 ***
           3       24                928.4755510298                925.0649414714 ***
           3       25               3217.2880260672               3197.7996066481 ***
           3       26                116.2372337726                115.1951246379 ***
           3       27                 14.1916443797                 14.1916441416
           3       28                100.8973238320                100.8973235910
           3       29                126.7268970011                126.7268978746
           3       30                265.5063129510                265.5063171135
           3       31                164.5864954693                164.5862098674
           3       32                152.6490461408                152.6521897582
           3       33                 50.8372160038                 50.8372160306
           3       34                 88.4076944870                 88.4076906764
           3       35                 82.8810909769                 82.8811630317
           3       36                 36.7178675709                 36.7178927368
           3       37                 85.5654659815                 85.5654660136
           3       38                115.1530221283                115.1530245794
           3       39                142.2669496021                142.2669496201
           4       40                 -6.4664147733                 -6.4652229287
           4       41                 13.7099062243                 13.7158503352
           4       42                 25.2661739479                 25.2663166526
 * Note: Onsite integrals marked "***" above are less accurate than
 * onsite_accuracy_threshold =    0.03000 eV. Usually, this is harmless.
 * When in doubt, tighten the "radial" and/or "radial_multiplier" flags to check.

  Preparing densities etc. for the partition functions (integrals / Hartree potential).

  Preparations completed.
  max(cpu_time)          :      0.509 s.
  Wall clock time (cpu1) :      0.507 s.
------------------------------------------------------------
  After prepare_scf [GB]:   1026.23

  Initializing index lists of integration centers etc. from given atomic structure:
  Mapping all atomic coordinates to central unit cell.

  Initializing the k-points
  Using symmetry for reducing the k-points
  | k-points reduced from:       64 to       34
  | Number of k-points                             :        34
  The eigenvectors in the calculations are COMPLEX.
  | K-points in task   0:         1
  | K-points in task   1:         2
  | K-points in task   2:         2
  | K-points in task   3:         1
  | K-points in task   4:         1
  | K-points in task   5:         1
  | K-points in task   6:         1
  | K-points in task   7:         1
  | K-points in task   8:         1
  | K-points in task   9:         1
  | K-points in task  10:         1
  | K-points in task  11:         1
  | K-points in task  12:         1
  | K-points in task  13:         1
  | K-points in task  14:         1
  | K-points in task  15:         1
  | K-points in task  16:         1
  | K-points in task  17:         1
  | K-points in task  18:         1
  | K-points in task  19:         1
  | K-points in task  20:         1
  | K-points in task  21:         1
  | K-points in task  22:         1
  | K-points in task  23:         1
  | K-points in task  24:         1
  | K-points in task  25:         1
  | K-points in task  26:         1
  | K-points in task  27:         1
  | K-points in task  28:         1
  | K-points in task  29:         1
  | K-points in task  30:         1
  | K-points in task  31:         1
  | Number of basis functions in the Hamiltonian integrals :      6045
  | Number of basis functions in a single unit cell        :       624
  | Number of centers in hartree potential         :      1960
  | Number of centers in hartree multipole         :      1116
  | Number of centers in electron density summation:       910
  | Number of centers in basis integrals           :       955
  | Number of centers in integrals                 :       444
  | Number of centers in hamiltonian               :      1086
  | Consuming         36 KiB for k_phase.
  | Number of super-cells (origin) [n_cells]                     :         315
  | Number of super-cells (after PM_index) [n_cells]             :          68
  | Number of super-cells in hamiltonian [n_cells_in_hamiltonian]:          68
  | Size of matrix packed + index [n_hamiltonian_matrix_size] :      922001
  After initialize_bc_dependent_lists [GB]:   1026.23

------------------------------------------------------------
          Begin self-consistency loop: Initialization.

          Date     :  20241210, Time     :  124447.948
------------------------------------------------------------
  Available memory per node after initialize_hartree_non_periodic_ewald [GB]:   1026.23
  | Estimated reciprocal-space cutoff momentum G_max:         2.32147920 bohr^-1 .
  | Reciprocal lattice points for long-range Hartree potential:    1258
  Available memory per node after initialize_recip_hartree_potential [GB]:   1026.23
  Available memory per node after initialize_scalapack [GB]:   1026.23
  Available memory per node after aims_elsi_init_scf [GB]:   1026.23
  Available memory per node after initialize_fixed_grids [GB]:   1026.23
  Partitioning the integration grid into batches with parallel hashing+maxmin method.
  | Number of batches:     2518
  | Maximal batch size:     200
  | Minimal batch size:      35
  | Average batch size:      91.621
  | Standard deviation of batch sizes:      37.304

  Integration load balanced across    32 MPI tasks.
  Work distribution over tasks is as follows:
  Task     0 has       7230 integration points.
  Task     1 has       7197 integration points.
  Task     2 has       7187 integration points.
  Task     3 has       7206 integration points.
  Task     4 has       7239 integration points.
  Task     5 has       7201 integration points.
  Task     6 has       7189 integration points.
  Task     7 has       7180 integration points.
  Task     8 has       7195 integration points.
  Task     9 has       7239 integration points.
  Task    10 has       7176 integration points.
  Task    11 has       7226 integration points.
  Task    12 has       7176 integration points.
  Task    13 has       7223 integration points.
  Task    14 has       7210 integration points.
  Task    15 has       7245 integration points.
  Task    16 has       7242 integration points.
  Task    17 has       7214 integration points.
  Task    18 has       7216 integration points.
  Task    19 has       7180 integration points.
  Task    20 has       7207 integration points.
  Task    21 has       7209 integration points.
  Task    22 has       7203 integration points.
  Task    23 has       7231 integration points.
  Task    24 has       7200 integration points.
  Task    25 has       7241 integration points.
  Task    26 has       7186 integration points.
  Task    27 has       7203 integration points.
  Task    28 has       7225 integration points.
  Task    29 has       7205 integration points.
  Task    30 has       7191 integration points.
  Task    31 has       7230 integration points.
  Available memory per node after partition_grid [GB]:   1026.23
  Initializing partition tables, free-atom densities, potentials, etc. across the integration grid (initialize_grid_storage).
  | initialize_grid_storage: Actual outermost partition radius vs. multipole_radius_free
  | (-- VB: in principle, multipole_radius_free should be larger, hence this output)
  | Species        1: Confinement radius =              4.999999999999999 AA, multipole_radius_free =              5.002391649902235 AA.
  | Species        1: outer_partition_radius set to              5.002391649902235 AA .
  | Species        2: Confinement radius =              4.999999999999999 AA, multipole_radius_free =              5.048384829883283 AA.
  | Species        2: outer_partition_radius set to              5.048384829883283 AA .
  | Species        3: Confinement radius =              6.000000000000000 AA, multipole_radius_free =              6.063247693467886 AA.
  | Species        3: outer_partition_radius set to              6.063247693467886 AA .
  | Species        4: Confinement radius =              4.999999999999999 AA, multipole_radius_free =              5.054417573612229 AA.
  | Species        4: outer_partition_radius set to              5.054417573612229 AA .
  | The sparse table of interatomic distances needs       4532.62 kbyte instead of      7296.20 kbyte of memory.
  | Net number of integration points:   230702
  | of which are non-zero points    :   188255
  | Numerical average free-atom electrostatic potential    :     -5.93958171 eV
  Available memory per node after initialize_grid_storage_p1 [GB]:   1026.23
  Renormalizing the initial density to the exact electron count on the 3D integration grid.
  | Initial density: Formal number of electrons (from input files) :     344.1000000000
  | Integrated number of electrons on 3D grid     :     344.0996052288
  | Charge integration error                      :      -0.0003947712
  | Normalization factor for density and gradient :       1.0000011473
  Renormalizing the free-atom superposition density to the exact electron count on the 3D integration grid.
  | Formal number of electrons (from input files) :     344.0000000000
  | Integrated number of electrons on 3D grid     :     344.0996052288
  | Charge integration error                      :      -0.0003947712
  | Normalization factor for density and gradient :       1.0000011473
  Obtaining max. number of non-zero basis functions in each batch (get_n_compute_maxes).
  | Maximal number of non-zero basis functions:      890 in task     0
  | Maximal number of non-zero basis functions:      841 in task     1
  | Maximal number of non-zero basis functions:      870 in task     2
  | Maximal number of non-zero basis functions:      835 in task     3
  | Maximal number of non-zero basis functions:      888 in task     4
  | Maximal number of non-zero basis functions:      843 in task     5
  | Maximal number of non-zero basis functions:      841 in task     6
  | Maximal number of non-zero basis functions:      833 in task     7
  | Maximal number of non-zero basis functions:      835 in task     8
  | Maximal number of non-zero basis functions:      884 in task     9
  | Maximal number of non-zero basis functions:      868 in task    10
  | Maximal number of non-zero basis functions:      848 in task    11
  | Maximal number of non-zero basis functions:      825 in task    12
  | Maximal number of non-zero basis functions:      874 in task    13
  | Maximal number of non-zero basis functions:      863 in task    14
  | Maximal number of non-zero basis functions:      887 in task    15
  | Maximal number of non-zero basis functions:      840 in task    16
  | Maximal number of non-zero basis functions:      898 in task    17
  | Maximal number of non-zero basis functions:      807 in task    18
  | Maximal number of non-zero basis functions:      824 in task    19
  | Maximal number of non-zero basis functions:      807 in task    20
  | Maximal number of non-zero basis functions:      808 in task    21
  | Maximal number of non-zero basis functions:      819 in task    22
  | Maximal number of non-zero basis functions:      893 in task    23
  | Maximal number of non-zero basis functions:      797 in task    24
  | Maximal number of non-zero basis functions:      838 in task    25
  | Maximal number of non-zero basis functions:      868 in task    26
  | Maximal number of non-zero basis functions:      823 in task    27
  | Maximal number of non-zero basis functions:      809 in task    28
  | Maximal number of non-zero basis functions:      834 in task    29
  | Maximal number of non-zero basis functions:      858 in task    30
  | Maximal number of non-zero basis functions:      832 in task    31
  Available memory per node after get_n_compute_maxes_p1 [GB]:   1026.23
  Initialize hartree_potential_storage
  Max. number of atoms included in rho_multipole:           36

  Evaluating partitioned Hartree potential by multipole expansion.
  | Original multipole sum: apparent total charge =   0.632770E-13
  | Sum of charges compensated after spline to logarithmic grids =   0.000000E+00
  | Analytical far-field extrapolation by fixed multipoles:
  | Hartree multipole sum: apparent total charge =   0.000000E+00
  Summing up the Hartree potential.
  | Ewald reciprocal-space coefficients, myid =     0 : cpu      0.000 s, wall      0.000 s.
  | Ewald reciprocal-space coefficients, myid =     1 : cpu      0.000 s, wall      0.000 s.
  | Ewald reciprocal-space coefficients, myid =     2 : cpu      0.000 s, wall      0.000 s.
  | Ewald reciprocal-space coefficients, myid =     3 : cpu      0.000 s, wall      0.000 s.
  | Ewald reciprocal-space coefficients, myid =     4 : cpu      0.000 s, wall      0.000 s.
  | Ewald reciprocal-space coefficients, myid =     5 : cpu      0.000 s, wall      0.000 s.
  | Ewald reciprocal-space coefficients, myid =     6 : cpu      0.000 s, wall      0.000 s.
  | Ewald reciprocal-space coefficients, myid =     7 : cpu      0.000 s, wall      0.000 s.
  | Ewald reciprocal-space coefficients, myid =     8 : cpu      0.000 s, wall      0.000 s.
  | Ewald reciprocal-space coefficients, myid =     9 : cpu      0.000 s, wall      0.000 s.
  | Ewald reciprocal-space coefficients, myid =    10 : cpu      0.000 s, wall      0.000 s.
  | Ewald reciprocal-space coefficients, myid =    11 : cpu      0.000 s, wall      0.000 s.
  | Ewald reciprocal-space coefficients, myid =    12 : cpu      0.000 s, wall      0.000 s.
  | Ewald reciprocal-space coefficients, myid =    13 : cpu      0.000 s, wall      0.000 s.
  | Ewald reciprocal-space coefficients, myid =    14 : cpu      0.000 s, wall      0.000 s.
  | Ewald reciprocal-space coefficients, myid =    15 : cpu      0.000 s, wall      0.000 s.
  | Ewald reciprocal-space coefficients, myid =    16 : cpu      0.000 s, wall      0.000 s.
  | Ewald reciprocal-space coefficients, myid =    17 : cpu      0.000 s, wall      0.000 s.
  | Ewald reciprocal-space coefficients, myid =    18 : cpu      0.000 s, wall      0.000 s.
  | Ewald reciprocal-space coefficients, myid =    19 : cpu      0.000 s, wall      0.000 s.
  | Ewald reciprocal-space coefficients, myid =    20 : cpu      0.000 s, wall      0.000 s.
  | Ewald reciprocal-space coefficients, myid =    21 : cpu      0.000 s, wall      0.000 s.
  | Ewald reciprocal-space coefficients, myid =    22 : cpu      0.000 s, wall      0.000 s.
  | Ewald reciprocal-space coefficients, myid =    23 : cpu      0.000 s, wall      0.000 s.
  | Ewald reciprocal-space coefficients, myid =    24 : cpu      0.000 s, wall      0.000 s.
  | Ewald reciprocal-space coefficients, myid =    25 : cpu      0.000 s, wall      0.000 s.
  | Ewald reciprocal-space coefficients, myid =    26 : cpu      0.000 s, wall      0.000 s.
  | Ewald reciprocal-space coefficients, myid =    27 : cpu      0.000 s, wall      0.000 s.
  | Ewald reciprocal-space coefficients, myid =    28 : cpu      0.000 s, wall      0.000 s.
  | Ewald reciprocal-space coefficients, myid =    29 : cpu      0.000 s, wall      0.000 s.
  | Ewald reciprocal-space coefficients, myid =    30 : cpu      0.000 s, wall      0.000 s.
  | Ewald reciprocal-space coefficients, myid =    31 : cpu      0.000 s, wall      0.000 s.
  Time summed over all CPUs for potential: real work        0.078 s, elapsed        0.081 s
  | RMS charge density error from multipole expansion :   0.378306E-13
  | Average real-space part of the electrostatic potential :     -0.00000000 eV

  Allocating        5.484 MB for KS_eigenvector_complex
  Available memory per node after allocate_matrices [GB]:   1026.21
  Available memory per node after init_comm_sparse_local_matrix_scalapack [GB]:   1026.21
  Integrating Hamiltonian matrix: batch-based integration.
  Time summed over all CPUs for integration: real work       48.469 s, elapsed       52.637 s
  Available memory per node after integrate hamiltonian matrix [GB]:   1025.12
  Integrating overlap matrix.
  Time summed over all CPUs for integration: real work        8.064 s, elapsed        8.684 s
  Available memory per node after integrate ovlp matrix [GB]:   1024.81
  Available memory per node after ASI_callbacks invoke [GB]:   1024.81
  Available memory per node after save_overlap_scalapack [GB]:   1024.81

  Updating Kohn-Sham eigenvalues and eigenvectors using ELSI and the (modified) LAPACK eigensolver.
  Singularity check in k-point 32, task 0 (analysis for other k-points/tasks may follow below):
  Overlap matrix is not singular
  | Lowest and highest eigenvalues :  0.1206E-03,  0.8682E+01
  Finished singularity check of overlap matrix
  | Time :     0.133 s
  Starting LAPACK eigensolver
  Finished Cholesky decomposition
  | Time :     0.023 s
  Finished transformation to standard eigenproblem
  | Time :     0.033 s
  Finished solving standard eigenproblem
  | Time :     0.149 s
  Finished back-transformation of eigenvectors
  | Time :     0.012 s

  Obtaining occupation numbers and electronic chemical potential using ELSI.
  | Note that, for insulating systems, the printed 'chemical potential' value is not uniquely defined.
  | It can be anywhere in the energy gap, as long as it correctly separates occupied and unoccupied states.
  | In systems with a gap, the physically relevant chemical potential is the VBM or HOMO.

  | Chemical potential (Fermi level):    -7.24704103 eV
  Available memory per node after advance_KS_solution [GB]:   1024.09
  Writing Kohn-Sham eigenvalues.

  Spin-up eigenvalues:
  K-point:       1 at    0.000000    0.000000    0.000000 (in units of recip. lattice)

  State    Occupation    Eigenvalue [Ha]    Eigenvalue [eV]
      1       1.00000        -179.962538        -4897.02983
      2       1.00000        -179.962538        -4897.02983
[...]
    243       0.00000           0.339498            9.23821
    244       0.00000           0.344762            9.38146
    245       0.00000           0.353842            9.62854
    246       0.00000           0.369732           10.06092
    247       0.00000           0.370654           10.08600
    248       0.00000           0.381673           10.38584
    249       0.00000           0.385295           10.48442
    250       0.00000           0.400160           10.88891
    251       0.00000           0.400782           10.90584
    252       0.00000           0.413202           11.24381
    253       0.00000           0.414096           11.26811
    254       0.00000           0.415011           11.29302
    255       0.00000           0.425191           11.57002
    256       0.00000           0.427683           11.63785
    257       0.00000           0.444021           12.08244
    258       0.00000           0.457296           12.44366
    259       0.00000           0.462608           12.58821
    260       0.00000           0.463385           12.60935
    261       0.00000           0.473217           12.87689
    262       0.00000           0.476635           12.96991
    263       0.00000           0.477709           12.99913
    264       0.00000           0.485336           13.20667
    265       0.00000           0.485886           13.22164
    266       0.00000           0.490722           13.35322
    267       0.00000           0.491199           13.36620
    268       0.00000           0.495444           13.48173
    269       0.00000           0.512033           13.93313
    270       0.00000           0.533037           14.50467
    271       0.00000           0.539323           14.67573
    272       0.00000           0.550019           14.96677
    273       0.00000           0.562841           15.31568
    274       0.00000           0.571728           15.55751
    275       0.00000           0.572733           15.58487
    276       0.00000           0.575539           15.66122
    277       0.00000           0.583566           15.87964
    278       0.00000           0.591369           16.09196
    279       0.00000           0.605730           16.48274
    280       0.00000           0.611137           16.62989
    281       0.00000           0.626667           17.05248
    282       0.00000           0.651235           17.72100
    283       0.00000           0.655734           17.84343
    284       0.00000           0.661537           18.00134
    285       0.00000           0.663459           18.05363
    286       0.00000           0.669826           18.22691
    287       0.00000           0.679409           18.48767
    288       0.00000           0.687490           18.70756

  Current spin moment of the entire structure :
  | N = N_up - N_down (sum over all k points):         0.00000
  | S (sum over all k points)                :         0.00000

  What follows are estimated values for band gap, HOMO, LUMO, etc.
  | They are estimated on a discrete k-point grid and not necessarily exact.
  | For converged numbers, create a DOS and/or band structure plot on a denser k-grid.

  Highest occupied state (VBM) at     -5.46338416 eV (relative to internal zero)
  | Occupation number:      1.00000000
  | K-point:       1 at    0.000000    0.000000    0.000000 (in units of recip. lattice)
  | Spin channel:        2

  Lowest unoccupied state (CBM) at    -4.86659655 eV (relative to internal zero)
  | Occupation number:      0.00000000
  | K-point:       1 at    0.000000    0.000000    0.000000 (in units of recip. lattice)
  | Spin channel:        1

  ESTIMATED overall HOMO-LUMO gap:      0.59678761 eV between HOMO at k-point 1 and LUMO at k-point 1
  | This appears to be a direct band gap.
  The gap value is above 0.2 eV. Unless you are using a very sparse k-point grid,
  this system is most likely an insulator or a semiconductor.

  Total energy components:
  | Sum of eigenvalues            :       -4898.05786012 Ha     -133282.93573508 eV
  | XC energy correction          :        -511.42338704 Ha      -13916.53842708 eV
  | XC potential correction       :         660.99279845 Ha       17986.52919030 eV
  | Free-atom electrostatic energy:       -3565.39512630 Ha      -97019.33767625 eV
  | Hartree energy correction     :         -29.85077617 Ha        -812.28094792 eV
  | Entropy correction            :          -0.00000000 Ha          -0.00000000 eV
  | ---------------------------
  | Total energy                  :       -8343.73435119 Ha     -227044.56359603 eV
  | Total energy, T -> 0          :       -8343.73435119 Ha     -227044.56359603 eV  <-- do not rely on this value for anything but (periodic) metals
  | Electronic free energy        :       -8343.73435119 Ha     -227044.56359603 eV

  Derived energy quantities:
  | Kinetic energy                :        8437.35418319 Ha      229592.08884153 eV
  | Electrostatic energy          :      -16269.66514734 Ha     -442720.11401048 eV
  | Energy correction for multipole
  | error in Hartree potential    :           0.06391904 Ha           1.73932550 eV
  | Sum of eigenvalues per atom                           :       -3702.30377042 eV
  | Total energy (T->0) per atom                          :       -6306.79343322 eV  <-- do not rely on this value for anything but (periodic) metals
  | Electronic free energy per atom                       :       -6306.79343322 eV
  End evaluation of scaled ZORA corrections.
  | Time for scaled ZORA corrections            :        3.302 s           3.300 s
------------------------------------------------------------

  Energy and forces in a compact form:
  | Total energy uncorrected      :         -0.227044563596033E+06 eV
  | Total energy corrected        :         -0.227044563596033E+06 eV  <-- do not rely on this value for anything but (periodic) metals
  | Electronic free energy        :         -0.227044563596033E+06 eV

  ------------------------------------ 
  Start decomposition of the XC Energy 
  ------------------------------------ 
  X and C from original XC functional choice 
  Hartree-Fock Energy :          0.000000000 Ha              0.000000000 eV
  X Energy            :       -498.100725783 Ha         -13554.010369017 eV
  C Energy            :        -13.322661258 Ha           -362.528058065 eV
  XC Energy w/o HF    :       -511.423387042 Ha         -13916.538427082 eV
  Total XC Energy     :       -511.423387042 Ha         -13916.538427082 eV
  ------------------------------------ 
  LDA X and C from self-consistent density 
  X Energy LDA        :       -461.679396253 Ha         -12562.935567162 eV
  C Energy LDA        :        -26.118545016 Ha           -710.721771007 eV
  ------------------------------------ 
  End decomposition of the XC Energy 
  ------------------------------------ 

------------------------------------------------------------

  ------------------------------------------------------------
                   Starting Mulliken Analysis
  ------------------------------------------------------------

  Performing Mulliken charge analysis on all atoms.
  Full analysis will be written to separate file 'Mulliken.out'.
  Summary of the per-atom charge analysis:
  |
  |  atom       electrons          charge             l=0             l=1             l=2             l=3             l=4
  |     1        8.457850       -0.457850        3.718638        4.727759        0.011453
  |     2        8.630967       -0.630967        3.847169        4.773889        0.009909
  |     3       20.892457        1.107543        6.056073       12.520492        2.171324        0.144568
  |     4       20.838518        1.161482        6.025534       12.513716        2.154081        0.145187
  |     5        8.630973       -0.630973        3.847169        4.773895        0.009909
  |     6        8.592282       -0.592282        3.842536        4.739939        0.009808
  |     7        8.619362       -0.619362        3.842469        4.766997        0.009895
  |     8        8.636389       -0.636389        3.845314        4.781137        0.009938
  |     9       20.843443        1.156557        6.030138       12.504204        2.163648        0.145453
  |    10       21.140655        0.859345        6.219520       12.624508        2.154935        0.141692
  |    11        8.636382       -0.636382        3.845314        4.781130        0.009938
  |    12        8.469988       -0.469988        3.724408        4.734200        0.011380
  |    13        8.455414       -0.455414        3.715305        4.728639        0.011470
  |    14        8.630967       -0.630967        3.847169        4.773889        0.009909
  |    15       21.156922        0.843078        6.244514       12.610834        2.162265        0.139309
  |    16       20.838518        1.161482        6.025534       12.513716        2.154081        0.145187
  |    17        8.630973       -0.630973        3.847169        4.773895        0.009909
  |    18        8.628336       -0.628336        3.836788        4.781726        0.009823
  |    19        7.019343        1.080657        3.596165        4.122209       -0.706677        0.006915        0.000731
  |    20        8.636389       -0.636389        3.845314        4.781137        0.009938
  |    21       20.924162        1.075838        6.056832       12.530921        2.191624        0.144785
  |    22       21.140655        0.859345        6.219519       12.624508        2.154935        0.141692
  |    23        8.636382       -0.636382        3.845314        4.781130        0.009938
  |    24        8.469354       -0.469354        3.717597        4.740254        0.011503
  |    25        0.787516        0.212484        0.704898        0.082618
  |    26        0.787395        0.212605        0.705289        0.082106
  |    27        0.787985        0.212015        0.705612        0.082373
  |    28        0.787045        0.212955        0.704585        0.082459
  |    29        8.450881       -0.450881        3.752080        4.690994        0.007808
  |    30        8.450881       -0.450881        3.750972        4.692121        0.007787
  |    31        0.870349        0.129651        0.779217        0.091132
  |    32        0.869462        0.130538        0.778405        0.091057
  |    33        8.458111       -0.458111        3.753661        4.696699        0.007750
  |    34        8.453273       -0.453273        3.752358        4.693133        0.007782
  |    35        0.870537        0.129463        0.779389        0.091148
  |    36        0.869884        0.130116        0.778799        0.091085
  |
  | Total      344.000000        0.100000
 
  Summary of the per-atom spin analysis:
  |
  |  atom   spin      l=0         l=1         l=2         l=3         l=4
  |     1   -0.000000   -0.000000   -0.000000   -0.000000
  |     2   -0.000000    0.000000   -0.000000   -0.000000
  |     3   -0.000000   -0.000000   -0.000000    0.000000    0.000000
  |     4    0.000000    0.000000    0.000000    0.000000   -0.000000
  |     5   -0.000000   -0.000000   -0.000000   -0.000000
  |     6   -0.000000    0.000000   -0.000000   -0.000000
  |     7   -0.000000   -0.000000   -0.000000   -0.000000
  |     8    0.000000    0.000000   -0.000000   -0.000000
  |     9    0.000000    0.000000    0.000000    0.000000    0.000000
  |    10   -0.000000   -0.000000   -0.000000   -0.000000   -0.000000
  |    11   -0.000000    0.000000   -0.000000   -0.000000
  |    12   -0.000000    0.000000   -0.000000   -0.000000
  |    13   -0.000000   -0.000000    0.000000    0.000000
  |    14    0.000000    0.000000    0.000000   -0.000000
  |    15   -0.000000   -0.000000   -0.000000   -0.000000   -0.000000
  |    16    0.000000    0.000000    0.000000   -0.000000    0.000000
  |    17   -0.000000   -0.000000   -0.000000   -0.000000
  |    18    0.000000    0.000000    0.000000   -0.000000
  |    19    0.000000    0.000000   -0.000000   -0.000000    0.000000   -0.000000
  |    20   -0.000000   -0.000000    0.000000    0.000000
  |    21   -0.000000   -0.000000   -0.000000    0.000000   -0.000000
  |    22   -0.000000   -0.000000   -0.000000   -0.000000   -0.000000
  |    23   -0.000000    0.000000   -0.000000   -0.000000
  |    24    0.000000    0.000000    0.000000    0.000000
  |    25   -0.000000   -0.000000   -0.000000
  |    26    0.000000    0.000000    0.000000
  |    27    0.000000    0.000000    0.000000
  |    28    0.000000    0.000000    0.000000
  |    29    0.000000    0.000000   -0.000000    0.000000
  |    30   -0.000000    0.000000   -0.000000   -0.000000
  |    31    0.000000    0.000000    0.000000
  |    32   -0.000000   -0.000000    0.000000
  |    33    0.000000    0.000000    0.000000    0.000000
  |    34   -0.000000   -0.000000   -0.000000   -0.000000
  |    35   -0.000000   -0.000000    0.000000
  |    36    0.000000    0.000000   -0.000000
  |
  | Total   -0.000000
 
  Writing Mulliken decomposition to disk ...

  Mulliken analysis                                       :  max(cpu_time)    wall_clock(cpu1)
  | Time for Mulliken analysis                            :          5.945               5.951
  | Total time for Mulliken analysis                      :          5.945               5.951
------------------------------------------------------------

------------------------------------------------------------------------------
  Final output of selected total energy values:

  The following output summarizes some interesting total energy values
  at the end of a run (AFTER all relaxation, molecular dynamics, etc.).

  | Total energy of the DFT / Hartree-Fock s.c.f. calculation      :        -227044.563596033 eV
  | Final zero-broadening corrected energy (caution - metals only) :        -227044.563596033 eV
  | For reference only, the value of 1 Hartree used in FHI-aims is :             27.211384500 eV
  | For reference only, the overall average (free atom contribution
  | + realspace contribution) of the electrostatic potential after
  | s.c.f. convergence is                                          :             -5.702340462 eV

  Before relying on these values, please be sure to understand exactly which
  total energy value is referred to by a given number. Different objects may
  all carry the same name 'total energy'. Definitions:

  Total energy of the DFT / Hartree-Fock s.c.f. calculation:
  | Note that this energy does not include ANY quantities calculated after the
  | s.c.f. cycle, in particular not ANY RPA, MP2, etc. many-body perturbation terms.
  | Scalar relativistic effects have been included in the 'scaled ZORA' approximation.

  Final zero-broadening corrected energy:
  | For metallic systems only, a broadening of the occupation numbers at the Fermi
  | level can be extrapolated back to zero broadening by an electron-gas inspired
  | formula. For all systems that are not real metals, this value can be
  | meaningless and should be avoided.

------------------------------------------------------------------------------
  Methods described in the following list of references were used in this FHI-aims run.
  If you publish the results, please make sure to cite these reference if they apply.
  FHI-aims is an academic code, and for our developers (often, Ph.D. students
  and postdocs), scientific credit in the community is essential.
  Thank you for helping us!

  For any use of FHI-aims, please cite:

    Volker Blum, Ralf Gehrke, Felix Hanke, Paula Havu, Ville Havu,
    Xinguo Ren, Karsten Reuter, and Matthias Scheffler
    'Ab initio molecular simulations with numeric atom-centered orbitals'
    Computer Physics Communications 180, 2175-2196 (2009)
    http://doi.org/10.1016/j.cpc.2009.06.022


  The provided symmetry information was generated with SPGlib:

    Atsushi Togo, Yusuke Seto, Dimitar Pashov
    SPGlib 1.7.3 obtained from http://spglib.sourceforge.net
    Licence: New BSD license
    Copyright (C) 2008 Atsushi Togo


  The ELSI infrastructure was used in your run to solve the Kohn-Sham electronic structure.
  Please check out https://wordpress.elsi-interchange.org to learn more.
  If scalability is important for your project, please acknowledge ELSI by citing:

    V. W-z. Yu, F. Corsetti, A. Garcia, W. P. Huhn, M. Jacquelin, W. Jia,
    B. Lange, L. Lin, J. Lu, W. Mi, A. Seifitokaldani, A. Vazquez-Mayagoitia,
    C. Yang, H. Yang, and V. Blum
    'ELSI: A unified software interface for Kohn-Sham electronic structure solvers'
    Computer Physics Communications 222, 267-285 (2018).
    http://doi.org/10.1016/j.cpc.2017.09.007


  For the real-space grid partitioning and parallelization used in this calculation, please cite:

    Ville Havu, Volker Blum, Paula Havu, and Matthias Scheffler,
    'Efficient O(N) integration for all-electron electronic structure calculation'
    'using numerically tabulated basis functions'
    Journal of Computational Physics 228, 8367-8379 (2009).
    http://doi.org/10.1016/j.jcp.2009.08.008

  Of course, there are many other important community references, e.g., those cited in the
  above references. Our list is limited to references that describe implementations in the
  FHI-aims code. The reason is purely practical (length of this list) - please credit others as well.

------------------------------------------------------------
          Leaving FHI-aims.
          Date     :  20241210, Time     :  124718.751

          Computational steps:
          | Number of self-consistency cycles          :           21
          | Number of SCF (re)initializations          :            1

          Detailed time accounting                     :  max(cpu_time)    wall_clock(cpu1)
          | Total time                                  :      151.389 s         151.400 s
          | Preparation time                            :        0.509 s           0.507 s
          | Boundary condition initalization            :        0.044 s           0.044 s
          | Grid partitioning                           :        0.148 s           0.148 s
          | Preloading free-atom quantities on grid     :        0.458 s           0.458 s
          | Free-atom superposition energy              :        0.050 s           0.050 s
          | Total time for integrations                 :       36.818 s          36.818 s
          | Total time for solution of K.-S. equations  :       19.282 s          19.282 s
          | Total time for density update               :       36.928 s          36.928 s
          | Total time for mixing & preconditioning     :       43.673 s          43.675 s
          | Total time for Hartree multipole update     :        0.088 s           0.087 s
          | Total time for Hartree multipole sum        :        3.766 s           3.766 s
          | Total time for total energy evaluation      :        0.012 s           0.012 s
          | Total time for scaled ZORA corrections      :        3.302 s           3.300 s
          | Total time for Mulliken analysis            :        5.952 s           5.951 s

          Partial memory accounting:
          | Residual value for overall tracked memory usage across tasks:     0.000000 MB (should be 0.000000 MB)
          | Peak values for overall tracked memory usage:
          |   Minimum:       64.943 MB (on task 12 after allocating eval_tmp)
          |   Maximum:       72.047 MB (on task  2 after allocating zora_vector2)
          |   Average:       66.176 MB
          | Largest tracked array allocation:
          |   Minimum:       14.069 MB (hamiltonian on task  0)
          |   Maximum:       14.069 MB (hamiltonian on task  0)
          |   Average:       14.069 MB
          Note:  These values currently only include a subset of arrays which are explicitly tracked.
          The "true" memory usage will be greater.

          Have a nice day.
------------------------------------------------------------
