------------------------------------------------------------
          Invoking FHI-aims ...

          When using FHI-aims, please cite the following reference:

            Volker Blum, Ralf Gehrke, Felix Hanke, Paula Havu,
            Ville Havu, Xinguo Ren, Karsten Reuter, and Matthias Scheffler,
            'Ab Initio Molecular Simulations with Numeric Atom-Centered Orbitals',
            Computer Physics Communications 180, 2175-2196 (2009)

          In addition, many other developments in FHI-aims are likely important for
          your particular application. If so, please cite them. A partial list of references
          is written at the end of this file. Thank you for giving credit to the authors
          of these developments.

          For general information about FHI-aims please find us at

            https://fhi-aims.org

          Online tutorials can be found at

            https://fhi-aims-club.gitlab.io/tutorials/tutorials-overview/

          For any questions about FHI-aims, please visit our slack channel at

            https://fhi-aims.slack.com

          and our main development and support site at

            https://aims-git.rz-berlin.mpg.de .

          The latter site, in particular, has a wiki to collect information, as well
          as an issue tracker to log discussions, suggest improvements, and report issues
          or bugs. https://aims-git.rz-berlin.mpg.de is also the main development site
          of the project and all new and updated code versions can be obtained there.
          Please send an email to aims-coordinators@fhi-berlin.mpg.de and we will add
          you to these sites. They are for you and everyone is welcome there.

------------------------------------------------------------



  Date     :  20241117, Time     :  235549.924
  Time zero on CPU 1             :   0.329258000000000E+00  s.
  Internal wall clock time zero  :           501119749.924  s.

  FHI-aims created a unique identifier for this run for later identification
  aims_uuid : 8289EFFC-5EEE-4636-A756-46DDA8028A4E

  Build configuration of the current instance of FHI-aims
  -------------------------------------------------------
  FHI-aims version      : 240605
  Commit number         : b001b2e18
  CMake host system     : Linux-6.5.0-41-generic
  CMake version         : 3.22.1
  Fortran compiler      : /opt/intel/oneapi/mpi/2021.12/bin/mpiifort (IntelLLVM) version 2024.1.0
  Fortran compiler flags: -fc=ifx -O3 -ip -fp-model precise
  C compiler            : /opt/intel/oneapi/mpi/2021.12/bin/mpiicc (IntelLLVM) version 2024.1.0
  C compiler flags      : -cc=icx -O3 -ip -fp-model precise -std=gnu99
  C++ compiler          : /opt/intel/oneapi/mpi/2021.12/bin/mpiicpc (IntelLLVM) version 2024.1.0
  C++ compiler flags    : -cxx=icpx -O3 -ip -fp-model precise -std=c++11
  HIP compiler          :
  HIP compiler flags    :
  HIP GPU arch          :
  Using MPI
  Using ScaLAPACK
  Using LibXC
  Using i-PI
  Using RLSY
  Linking against: /opt/intel/oneapi/mkl/2024.1/lib/intel64/libmkl_intel_lp64.so
                   /opt/intel/oneapi/mkl/2024.1/lib/intel64/libmkl_sequential.so
                   /opt/intel/oneapi/mkl/2024.1/lib/intel64/libmkl_core.so
                   /opt/intel/oneapi/mkl/2024.1/lib/intel64/libmkl_blacs_intelmpi_lp64.so
                   /opt/intel/oneapi/mkl/2024.1/lib/intel64/libmkl_scalapack_lp64.so
                   /opt/intel/oneapi/mkl/2024.1/lib/intel64/libmkl_core.so

  Using       32 parallel tasks.
  Task        0 on host RSL-arvutus reporting.
  Task        1 on host RSL-arvutus reporting.
  Task        2 on host RSL-arvutus reporting.
  Task        3 on host RSL-arvutus reporting.
  Task        4 on host RSL-arvutus reporting.
  Task        5 on host RSL-arvutus reporting.
  Task        6 on host RSL-arvutus reporting.
  Task        7 on host RSL-arvutus reporting.
  Task        8 on host RSL-arvutus reporting.
  Task        9 on host RSL-arvutus reporting.
  Task       10 on host RSL-arvutus reporting.
  Task       11 on host RSL-arvutus reporting.
  Task       12 on host RSL-arvutus reporting.
  Task       13 on host RSL-arvutus reporting.
  Task       14 on host RSL-arvutus reporting.
  Task       15 on host RSL-arvutus reporting.
  Task       16 on host RSL-arvutus reporting.
  Task       17 on host RSL-arvutus reporting.
  Task       18 on host RSL-arvutus reporting.
  Task       19 on host RSL-arvutus reporting.
  Task       20 on host RSL-arvutus reporting.
  Task       21 on host RSL-arvutus reporting.
  Task       22 on host RSL-arvutus reporting.
  Task       23 on host RSL-arvutus reporting.
  Task       24 on host RSL-arvutus reporting.
  Task       25 on host RSL-arvutus reporting.
  Task       26 on host RSL-arvutus reporting.
  Task       27 on host RSL-arvutus reporting.
  Task       28 on host RSL-arvutus reporting.
  Task       29 on host RSL-arvutus reporting.
  Task       30 on host RSL-arvutus reporting.
  Task       31 on host RSL-arvutus reporting.

  Memory overcommitment is allowed on your operating system.

  Obtaining array dimensions for all initial allocations:
  
  -----------------------------------------------------------------------
  Parsing control.in (first pass over file, find array dimensions only).
  The contents of control.in will be repeated verbatim below
  unless switched off by setting 'verbatim_writeout .false.' .
  in the first line of control.in .
  -----------------------------------------------------------------------
  
    xc              pbe
    relativistic    zora scalar 1.0e-12
    KS_method	  serial
    k_grid	  8 8 1
  
    output          Mulliken
    output          dos_tetrahedron -100 10 100000
    dos_kgrid_factors 3 3 3
  
  ################################################################################
  #
  #  FHI-aims code project
  #  VB, Fritz-Haber Institut, 2009
  #
  #  Suggested "light" defaults for Ti atom (to be pasted into control.in file)
  #  Be sure to double-check any results obtained with these settings for post-processing,
  #  e.g., with the "tight" defaults and larger basis sets.
  #
  ################################################################################
    species        Ti
  #     global species definitions
      nucleus             22
      mass                47.867
  #
      l_hartree           4
  #
      cut_pot             3.5          1.5  1.0
      basis_dep_cutoff    1e-4
  #
      radial_base         48 5.0
      radial_multiplier   1
      angular_grids       specified
        division   0.5171   50
        division   0.9824  110
        division   1.2917  194
        division   1.4940  302
  #      division   1.6934  434
  #      division   1.8425  590
  #      division   2.1901  770
  #      division   2.2896  974
  #      division   2.8244 1202
  #      outer_grid  974
        outer_grid  302
  ################################################################################
  #
  #  Definition of "minimal" basis
  #
  ################################################################################
  #     valence basis states
      valence      4  s   2.
      valence      3  p   6.
      valence      3  d   2.
  #     ion occupancy
      ion_occ      4  s   1.
      ion_occ      3  p   6.
      ion_occ      3  d   1.
  ################################################################################
  #
  #  Suggested additional basis functions. For production calculations,
  #  uncomment them one after another (the most important basis functions are
  #  listed first).
  #
  #  Constructed for dimers: 1.6 A, 1.85 A, 2.5 A, 3.25 A, 4.25 A
  #
  ################################################################################
  #  "First tier" - improvements: -396.25 meV to -19.41 meV
       hydro 4 f 8
       hydro 3 d 2.7
       ionic 4 p auto
  #     hydro 5 g 11.6
       ionic 4 s auto
  #  "Second tier" - improvements: -16.30 meV to -2.03 meV
  #     hydro 3 d 4.4
  #     hydro 6 h 16
  #     hydro 4 f 9.4
  #     hydro 4 p 4.5
  #     hydro 1 s 0.5
  #  "Third tier" - improvements: -6.28 meV to -0.37 meV
  #     hydro 4 d 6.4
  #     hydro 4 f 10
  #     hydro 5 g 12
  #     hydro 2 p 1.7
  #     hydro 6 h 16.4
  #     hydro 4 s 3.8
  #  Further basis functions: -0.45 meV and smaller improvements
  #     hydro 3 d 8.8
  #     hydro 5 p 18
  #     hydro 4 f 22.4
  #     hydro 5 f 7.2  # -0.16 meV
  #     hydro 3 d 2.1  # -0.11 meV
  #     hydro 5 g 7.4  # -0.09 meV
  
  
  ################################################################################
  #
  #  FHI-aims code project
  #  VB, Fritz-Haber Institut, 2009
  #
  #  Suggested "light" defaults for O atom (to be pasted into control.in file)
  #  Be sure to double-check any results obtained with these settings for post-processing,
  #  e.g., with the "tight" defaults and larger basis sets.
  #
  ################################################################################
    species        O
  #     global species definitions
      nucleus             8
      mass                15.9994
  #
      l_hartree           4
  #
      cut_pot             3.5  1.5  1.0
      basis_dep_cutoff    1e-4
  #
      radial_base         36 5.0
      radial_multiplier   1
       angular_grids specified
        division   0.2659   50
        division   0.4451  110
        division   0.6052  194
        division   0.7543  302
  #      division   0.8014  434
  #      division   0.8507  590
  #      division   0.8762  770
  #      division   0.9023  974
  #      division   1.2339 1202
  #      outer_grid 974
        outer_grid 302
  ################################################################################
  #
  #  Definition of "minimal" basis
  #
  ################################################################################
  #     valence basis states
      valence      2  s   2.
      valence      2  p   4.
  #     ion occupancy
      ion_occ      2  s   1.
      ion_occ      2  p   3.
  ################################################################################
  #
  #  Suggested additional basis functions. For production calculations,
  #  uncomment them one after another (the most important basis functions are
  #  listed first).
  #
  #  Constructed for dimers: 1.0 A, 1.208 A, 1.5 A, 2.0 A, 3.0 A
  #
  ################################################################################
  #  "First tier" - improvements: -699.05 meV to -159.38 meV
       hydro 2 p 1.8
       hydro 3 d 7.6
       hydro 3 s 6.4
  #  "Second tier" - improvements: -49.91 meV to -5.39 meV
  #     hydro 4 f 11.6
  #     hydro 3 p 6.2
  #     hydro 3 d 5.6
  #     hydro 5 g 17.6
  #     hydro 1 s 0.75
  #  "Third tier" - improvements: -2.83 meV to -0.50 meV
  #     ionic 2 p auto
  #     hydro 4 f 10.8
  #     hydro 4 d 4.7
  #     hydro 2 s 6.8
  #  "Fourth tier" - improvements: -0.40 meV to -0.12 meV
  #     hydro 3 p 5
  #     hydro 3 s 3.3
  #     hydro 5 g 15.6
  #     hydro 4 f 17.6
  #     hydro 4 d 14
  # Further basis functions - -0.08 meV and below
  #     hydro 3 s 2.1
  #     hydro 4 d 11.6
  #     hydro 3 p 16
  #     hydro 2 s 17.2
  
  ################################################################################
  #
  #  "Core" basis functions and numerical settings for O atom.
  #  Based on “tight” defaults (V. Blum, 2009).
  #
  ################################################################################
    species        O1
  #     global species definitions
      nucleus             8.
      mass                15.9994
  #
      l_hartree           6
  #
      cut_pot             4.0  2.0  1.0
      basis_dep_cutoff    1e-4
  #
      radial_base         36 7.0
      radial_multiplier   2
       angular_grids specified
        division   0.1817   50
        division   0.3417  110
        division   0.4949  194
        division   0.6251  302
        division   0.8014  434
  #      division   0.8507  590
  #      division   0.8762  770
  #      division   0.9023  974
  #      division   1.2339 1202
  #      outer_grid 974
        outer_grid  434
  ################################################################################
  #
  #  Definition of "minimal" basis
  #
  ################################################################################
  #     valence basis states
      valence      2  s   2.
      valence      2  p   4.
  #     ion occupancy
      ion_occ      2  s   1.
      ion_occ      2  p   3.
  ################################################################################
  #
  #  Suggested additional basis functions. For production calculations,
  #  uncomment them one after another (the most important basis functions are
  #  listed first).
  #
  #  Constructed for dimers: 1.0 A, 1.208 A, 1.5 A, 2.0 A, 3.0 A
  #
  ################################################################################
  #  "First tier" - improvements: -699.05 meV to -159.38 meV
       hydro 2 p 1.8
       hydro 3 d 7.6
       hydro 3 s 6.4
  #  "Second tier" - improvements: -49.91 meV to -5.39 meV
       hydro 4 f 11.6
       hydro 3 p 6.2
       hydro 3 d 5.6
       hydro 5 g 17.6
       hydro 1 s 0.75
  #  "Third tier" - improvements: -2.83 meV to -0.50 meV
       ionic 2 p auto
       hydro 4 f 10.8
       hydro 4 d 4.7
       hydro 2 s 6.8
  #  "Fourth tier" - improvements: -0.40 meV to -0.12 meV
  #     hydro 3 p 5
  #     hydro 3 s 3.3
  #     hydro 5 g 15.6
  #     hydro 4 f 17.6
  #     hydro 4 d 14
  # Further basis functions - -0.08 meV and below
  #     hydro 3 s 2.1
  #     hydro 4 d 11.6
  #     hydro 3 p 16
  #     hydro 2 s 17.2
  
  # Additional basis functions for atom with a core hole
       hydro 1 s 12.0
       hydro 1 s 10.0
       hydro 1 s 6.0
       hydro 2 s 10.0
       hydro 2 p 8.0
       hydro 2 p 6.0
       hydro 3 d 8.0
  
  -----------------------------------------------------------------------
  Completed first pass over input file control.in .
  -----------------------------------------------------------------------
  
  
  -----------------------------------------------------------------------
  Parsing geometry.in (first pass over file, find array dimensions only).
  The contents of geometry.in will be repeated verbatim below
  unless switched off by setting 'verbatim_writeout .false.' .
  in the first line of geometry.in .
  -----------------------------------------------------------------------
  
  lattice_vector 6.566127 0.000000 0.000000
  lattice_vector 0.000000 5.945765 0.000000
  lattice_vector 0.000000 0.000000 66.705880
  
  atom 6.566086 0.000000 24.506468 O
  atom 2.006317 1.486441 25.783206 O
  atom 3.283046 0.000000 25.783235 Ti
  atom 6.566109 1.486441 25.783235 Ti
  atom 4.559775 1.486441 25.783265 O
  atom 0.000005 0.000000 27.060002 O
  atom 3.283006 0.000000 27.789704 O
  atom 5.289362 1.486441 29.066441 O
  atom 6.566091 0.000000 29.066471 Ti
  atom 3.283028 1.486441 29.066471 Ti
  atom 1.276694 1.486441 29.066500 O
  atom 3.283051 0.000000 30.343237 O
  atom 6.566051 0.000000 31.072939 O
  atom 2.006281 1.486441 32.349676 O
  atom 3.283010 0.000000 32.349706 Ti
  atom 6.566074 1.486441 32.349706 Ti
  atom 4.559740 1.486441 32.349735 O
  atom 6.566096 0.000000 33.626473 O
  atom 3.282970 0.000000 34.356174 O
  atom 5.289327 1.486441 35.632912 O
  atom 6.566056 0.000000 35.632941 Ti
  atom 3.282993 1.486441 35.632941 Ti
  atom 1.276659 1.486441 35.632970 O
  atom 3.283015 0.000000 36.909708 O
  atom 6.566016 0.000000 37.639409 O
  atom 2.006246 1.486441 38.916147 O
  atom 3.282975 0.000000 38.916176 Ti
  atom 6.566039 1.486441 38.916176 Ti
  atom 4.559704 1.486441 38.916206 O
  atom 6.566061 0.000000 40.192943 O
  atom 3.282935 0.000000 40.922645 O
  atom 5.289292 1.486441 42.199382 O
  atom 6.566021 0.000000 42.199412 Ti
  atom 3.282958 1.486441 42.199412 Ti
  atom 1.276623 1.486441 42.199441 O
  atom 3.282980 0.000000 43.476178 O
  atom 6.566086 2.972883 24.506468 O
  atom 2.006317 4.459324 25.783206 O
  atom 3.283046 2.972883 25.783235 Ti
  atom 6.566109 4.459324 25.783235 Ti
  atom 4.559775 4.459324 25.783265 O
  atom 0.000005 2.972883 27.060002 O
  atom 3.283006 2.972883 27.789704 O
  atom 5.289362 4.459324 29.066441 O
  atom 6.566091 2.972883 29.066471 Ti
  atom 3.283028 4.459324 29.066471 Ti
  atom 1.276694 4.459324 29.066500 O
  atom 3.283051 2.972883 30.343237 O
  atom 6.566051 2.972883 31.072939 O
  atom 2.006281 4.459324 32.349676 O
  atom 3.283010 2.972883 32.349706 Ti
  atom 6.566074 4.459324 32.349706 Ti
  atom 4.559740 4.459324 32.349735 O
  atom 6.566096 2.972883 33.626473 O
  atom 3.282970 2.972883 34.356174 O
  atom 5.289327 4.459324 35.632912 O
  atom 6.566056 2.972883 35.632941 Ti
  atom 3.282993 4.459324 35.632941 Ti
  atom 1.276659 4.459324 35.632970 O
  atom 3.283015 2.972883 36.909708 O
  atom 6.566016 2.972883 37.639409 O
  atom 2.006246 4.459324 38.916147 O
  atom 3.282975 2.972883 38.916176 Ti
  atom 6.566039 4.459324 38.916176 Ti
  atom 4.559704 4.459324 38.916206 O
  atom 6.566061 2.972883 40.192943 O
  atom 3.282935 2.972883 40.922645 O
  atom 5.289292 4.459324 42.199382 O
  atom 6.566021 2.972883 42.199412 Ti
  atom 3.282958 4.459324 42.199412 Ti
  atom 1.276623 4.459324 42.199441 O
  atom 3.282980 2.972883 43.476178 O
  
  -----------------------------------------------------------------------
  Completed first pass over input file geometry.in .
  -----------------------------------------------------------------------
  

  Basic array size parameters:
  | Number of species                 :        3
  | Number of atoms                   :       72
  | Number of lattice vectors         :        3
  | Max. basis fn. angular momentum   :        4
  | Max. atomic/ionic basis occupied n:        4
  | Max. number of basis fn. types    :        3
  | Max. radial fns per species/type  :       18
  | Max. logarithmic grid size        :     1383
  | Max. radial integration grid size :       73
  | Max. angular integration grid size:      434
  | Max. angular grid division number :        8
  | Radial grid for Hartree potential :     1383
  | Number of spin channels           :        1

------------------------------------------------------------
          Reading file control.in.
------------------------------------------------------------
  XC: Using PBE gradient-corrected functionals.
  Scalar relativistic treatment of kinetic energy: ZORA.
  Threshold value for ZORA:   0.100000E-11
  Kohn-Sham eigenvalues and eigenfunctions calculated by LAPACK via ELSI.
  Found k-point grid:         8         8         1
  Mulliken charge analysis will be performed and summarised to the main output.
  Full Mulliken charge analysis will be written to file 'Mulliken.out'.
  Calculating density of states with
  | energy interval :********** 10.000000
  | points & tetrahedron method :100000
  Found k-point grid multipliers for perturbative DOS :         3         3         3
 
  Reading configuration options for species Ti                  .
  | Found nuclear charge :  22.0000
  | Found atomic mass :    47.8670000000000      amu
  | Found l_max for Hartree potential  :   4
  | Found cutoff potl. onset [A], width [A], scale factor :    3.50000    1.50000    1.00000
  | Threshold for basis-dependent cutoff potential is   0.100000E-03
  | Found data for basic radial integration grid :    48 points, outermost radius =    5.000 A
  | Found multiplier for basic radial grid :   1
  | Found angular grid specification: user-specified.
  | Specified grid contains     5 separate shells.
  | Check grid settings after all constraints further below.
  | Found free-atom valence shell :  4 s   2.000
  | Found free-atom valence shell :  3 p   6.000
  | Found free-atom valence shell :  3 d   2.000
  | Found free-ion valence shell :  4 s   1.000
  | Found free-ion valence shell :  3 p   6.000
  | Found free-ion valence shell :  3 d   1.000
  | Found hydrogenic basis function :  4 f   8.000
  | Found hydrogenic basis function :  3 d   2.700
  | Found ionic basis function :  4 p , default cutoff radius.
  | Found ionic basis function :  4 s , default cutoff radius.
 | Encountered keyword species, ending the description of species Ti                  .
  Species Ti                  : Missing cutoff potential type.
  Defaulting to exp(1/x)/(1-x)^2 type cutoff potential.
  Species Ti: No 'logarithmic' tag. Using default grid for free atom:
  | Default logarithmic grid data [bohr] : 0.1000E-03 0.1000E+03 0.1012E+01
  | Will include ionic basis functions of  2.0-fold positive Ti                   ion.
  Species Ti: On-site basis accuracy parameter (for Gram-Schmidt orthonormalisation) not specified.
  Using default value basis_acc =  0.1000000E-03.
  Species Ti                  : Using default innermost maximum threshold i_radial=  2 for radial functions.
  Species Ti                  : Default cutoff onset for free atom density etc. : 0.35000000E+01 AA.
  Species Ti                  : Basic radial grid will be enhanced according to radial_multiplier =   1, to contain    48 grid points.
 
  Reading configuration options for species O                   .
  | Found nuclear charge :   8.0000
  | Found atomic mass :    15.9994000000000      amu
  | Found l_max for Hartree potential  :   4
  | Found cutoff potl. onset [A], width [A], scale factor :    3.50000    1.50000    1.00000
  | Threshold for basis-dependent cutoff potential is   0.100000E-03
  | Found data for basic radial integration grid :    36 points, outermost radius =    5.000 A
  | Found multiplier for basic radial grid :   1
  | Found angular grid specification: user-specified.
  | Specified grid contains     5 separate shells.
  | Check grid settings after all constraints further below.
  | Found free-atom valence shell :  2 s   2.000
  | Found free-atom valence shell :  2 p   4.000
  | Found free-ion valence shell :  2 s   1.000
  | Found free-ion valence shell :  2 p   3.000
  | Found hydrogenic basis function :  2 p   1.800
  | Found hydrogenic basis function :  3 d   7.600
  | Found hydrogenic basis function :  3 s   6.400
 | Encountered keyword species, ending the description of species O                   .
  Species O                   : Missing cutoff potential type.
  Defaulting to exp(1/x)/(1-x)^2 type cutoff potential.
  Species O : No 'logarithmic' tag. Using default grid for free atom:
  | Default logarithmic grid data [bohr] : 0.1000E-03 0.1000E+03 0.1012E+01
  Species O : On-site basis accuracy parameter (for Gram-Schmidt orthonormalisation) not specified.
  Using default value basis_acc =  0.1000000E-03.
  Species O                   : Using default innermost maximum threshold i_radial=  2 for radial functions.
  Species O                   : Default cutoff onset for free atom density etc. : 0.35000000E+01 AA.
  Species O                   : Basic radial grid will be enhanced according to radial_multiplier =   1, to contain    36 grid points.
 
  Reading configuration options for species O1                  .
  | Found nuclear charge :   8.0000
  | Found atomic mass :    15.9994000000000      amu
  | Found l_max for Hartree potential  :   6
  | Found cutoff potl. onset [A], width [A], scale factor :    4.00000    2.00000    1.00000
  | Threshold for basis-dependent cutoff potential is   0.100000E-03
  | Found data for basic radial integration grid :    36 points, outermost radius =    7.000 A
  | Found multiplier for basic radial grid :   2
  | Found angular grid specification: user-specified.
  | Specified grid contains     6 separate shells.
  | Check grid settings after all constraints further below.
  | Found free-atom valence shell :  2 s   2.000
  | Found free-atom valence shell :  2 p   4.000
  | Found free-ion valence shell :  2 s   1.000
  | Found free-ion valence shell :  2 p   3.000
  | Found hydrogenic basis function :  2 p   1.800
  | Found hydrogenic basis function :  3 d   7.600
  | Found hydrogenic basis function :  3 s   6.400
  | Found hydrogenic basis function :  4 f  11.600
  | Found hydrogenic basis function :  3 p   6.200
  | Found hydrogenic basis function :  3 d   5.600
  | Found hydrogenic basis function :  5 g  17.600
  | Found hydrogenic basis function :  1 s   0.750
  | Found ionic basis function :  2 p , default cutoff radius.
  | Found hydrogenic basis function :  4 f  10.800
  | Found hydrogenic basis function :  4 d   4.700
  | Found hydrogenic basis function :  2 s   6.800
  | Found hydrogenic basis function :  1 s  12.000
  | Found hydrogenic basis function :  1 s  10.000
  | Found hydrogenic basis function :  1 s   6.000
  | Found hydrogenic basis function :  2 s  10.000
  | Found hydrogenic basis function :  2 p   8.000
  | Found hydrogenic basis function :  2 p   6.000
  | Found hydrogenic basis function :  3 d   8.000
  Species O1                  : Missing cutoff potential type.
  Defaulting to exp(1/x)/(1-x)^2 type cutoff potential.
  Species O1: No 'logarithmic' tag. Using default grid for free atom:
  | Default logarithmic grid data [bohr] : 0.1000E-03 0.1000E+03 0.1012E+01
  | Will include ionic basis functions of  2.0-fold positive O1                   ion.
  Species O1: On-site basis accuracy parameter (for Gram-Schmidt orthonormalisation) not specified.
  Using default value basis_acc =  0.1000000E-03.
  Species O1                  : Using default innermost maximum threshold i_radial=  2 for radial functions.
  Species O1                  : Default cutoff onset for free atom density etc. : 0.40000000E+01 AA.
  Species O1                  : Basic radial grid will be enhanced according to radial_multiplier =   2, to contain    73 grid points.
 
  Finished reading input file 'control.in'.
 
------------------------------------------------------------


------------------------------------------------------------
          Reading geometry description geometry.in.
------------------------------------------------------------
  | The smallest distance between any two atoms is         1.95947539 AA.
  | The first atom of this pair is atom number                     56 .
  | The second atom of this pair is atom number                    57 .
  | Wigner-Seitz cell of the first atom image           0     0     0 .
  | (The Wigner-Seitz cell of the second atom is 0 0 0  by definition.)

  Symmetry information by spglib:
  | Precision set to  0.1E-04
  | Number of Operations  : 8
  | Space group           : 10
  | International         : P2/m
  | Schoenflies           : C2h^1
  Input structure read successfully.
  The structure contains       72 atoms,  and a total of        912.000 electrons.

  Input geometry:
  | Unit cell:
  |        6.56612700        0.00000000        0.00000000
  |        0.00000000        5.94576500        0.00000000
  |        0.00000000        0.00000000       66.70588000
  | Atomic structure:
  |       Atom                x [A]            y [A]            z [A]
  |    1: Species O             6.56608600        0.00000000       24.50646800
  |    2: Species O             2.00631700        1.48644100       25.78320600
  |    3: Species Ti            3.28304600        0.00000000       25.78323500
  |    4: Species Ti            6.56610900        1.48644100       25.78323500
  |    5: Species O             4.55977500        1.48644100       25.78326500
  |    6: Species O             0.00000500        0.00000000       27.06000200
  |    7: Species O             3.28300600        0.00000000       27.78970400
  |    8: Species O             5.28936200        1.48644100       29.06644100
  |    9: Species Ti            6.56609100        0.00000000       29.06647100
  |   10: Species Ti            3.28302800        1.48644100       29.06647100
  |   11: Species O             1.27669400        1.48644100       29.06650000
  |   12: Species O             3.28305100        0.00000000       30.34323700
  |   13: Species O             6.56605100        0.00000000       31.07293900
  |   14: Species O             2.00628100        1.48644100       32.34967600
  |   15: Species Ti            3.28301000        0.00000000       32.34970600
  |   16: Species Ti            6.56607400        1.48644100       32.34970600
  |   17: Species O             4.55974000        1.48644100       32.34973500
  |   18: Species O             6.56609600        0.00000000       33.62647300
  |   19: Species O             3.28297000        0.00000000       34.35617400
  |   20: Species O             5.28932700        1.48644100       35.63291200
  |   21: Species Ti            6.56605600        0.00000000       35.63294100
  |   22: Species Ti            3.28299300        1.48644100       35.63294100
  |   23: Species O             1.27665900        1.48644100       35.63297000
  |   24: Species O             3.28301500        0.00000000       36.90970800
  |   25: Species O             6.56601600        0.00000000       37.63940900
  |   26: Species O             2.00624600        1.48644100       38.91614700
  |   27: Species Ti            3.28297500        0.00000000       38.91617600
  |   28: Species Ti            6.56603900        1.48644100       38.91617600
  |   29: Species O             4.55970400        1.48644100       38.91620600
  |   30: Species O             6.56606100        0.00000000       40.19294300
  |   31: Species O             3.28293500        0.00000000       40.92264500
  |   32: Species O             5.28929200        1.48644100       42.19938200
  |   33: Species Ti            6.56602100        0.00000000       42.19941200
  |   34: Species Ti            3.28295800        1.48644100       42.19941200
  |   35: Species O             1.27662300        1.48644100       42.19944100
  |   36: Species O             3.28298000        0.00000000       43.47617800
  |   37: Species O             6.56608600        2.97288300       24.50646800
  |   38: Species O             2.00631700        4.45932400       25.78320600
  |   39: Species Ti            3.28304600        2.97288300       25.78323500
  |   40: Species Ti            6.56610900        4.45932400       25.78323500
  |   41: Species O             4.55977500        4.45932400       25.78326500
  |   42: Species O             0.00000500        2.97288300       27.06000200
  |   43: Species O             3.28300600        2.97288300       27.78970400
  |   44: Species O             5.28936200        4.45932400       29.06644100
  |   45: Species Ti            6.56609100        2.97288300       29.06647100
  |   46: Species Ti            3.28302800        4.45932400       29.06647100
  |   47: Species O             1.27669400        4.45932400       29.06650000
  |   48: Species O             3.28305100        2.97288300       30.34323700
  |   49: Species O             6.56605100        2.97288300       31.07293900
  |   50: Species O             2.00628100        4.45932400       32.34967600
  |   51: Species Ti            3.28301000        2.97288300       32.34970600
  |   52: Species Ti            6.56607400        4.45932400       32.34970600
  |   53: Species O             4.55974000        4.45932400       32.34973500
  |   54: Species O             6.56609600        2.97288300       33.62647300
  |   55: Species O             3.28297000        2.97288300       34.35617400
  |   56: Species O             5.28932700        4.45932400       35.63291200
  |   57: Species Ti            6.56605600        2.97288300       35.63294100
  |   58: Species Ti            3.28299300        4.45932400       35.63294100
  |   59: Species O             1.27665900        4.45932400       35.63297000
  |   60: Species O             3.28301500        2.97288300       36.90970800
  |   61: Species O             6.56601600        2.97288300       37.63940900
  |   62: Species O             2.00624600        4.45932400       38.91614700
  |   63: Species Ti            3.28297500        2.97288300       38.91617600
  |   64: Species Ti            6.56603900        4.45932400       38.91617600
  |   65: Species O             4.55970400        4.45932400       38.91620600
  |   66: Species O             6.56606100        2.97288300       40.19294300
  |   67: Species O             3.28293500        2.97288300       40.92264500
  |   68: Species O             5.28929200        4.45932400       42.19938200
  |   69: Species Ti            6.56602100        2.97288300       42.19941200
  |   70: Species Ti            3.28295800        4.45932400       42.19941200
  |   71: Species O             1.27662300        4.45932400       42.19944100
  |   72: Species O             3.28298000        2.97288300       43.47617800

  Lattice parameters for 3D lattice (in Angstroms) :     6.566127    5.945765   66.705880
  Angle(s) between unit vectors (in degrees)       :    90.000000   90.000000   90.000000


  Quantities derived from the lattice vectors (in Angstrom^-1):
  | Reciprocal lattice vector 1:  0.956909  0.000000  0.000000
  | Reciprocal lattice vector 2:  0.000000  1.056750  0.000000
  | Reciprocal lattice vector 3:  0.000000  0.000000  0.094192
  | Unit cell volume                               :   0.260424E+04  Angstrom^3

  Fractional coordinates:
                         L1                L2                L3
       atom_frac         0.99999376        0.00000000        0.36738093  O
       atom_frac         0.30555562        0.24999996        0.38652074  O
       atom_frac         0.49999733        0.00000000        0.38652117  Ti
       atom_frac         0.99999726        0.24999996        0.38652117  Ti
       atom_frac         0.69443905        0.24999996        0.38652162  O
       atom_frac         0.00000076        0.00000000        0.40566142  O
       atom_frac         0.49999124        0.00000000        0.41660052  O
       atom_frac         0.80555280        0.24999996        0.43574031  O
       atom_frac         0.99999452        0.00000000        0.43574076  Ti
       atom_frac         0.49999459        0.24999996        0.43574076  Ti
       atom_frac         0.19443639        0.24999996        0.43574120  O
       atom_frac         0.49999810        0.00000000        0.45488099  O
       atom_frac         0.99998843        0.00000000        0.46582009  O
       atom_frac         0.30555014        0.24999996        0.48495989  O
       atom_frac         0.49999185        0.00000000        0.48496034  Ti
       atom_frac         0.99999193        0.24999996        0.48496034  Ti
       atom_frac         0.69443372        0.24999996        0.48496077  O
       atom_frac         0.99999528        0.00000000        0.50410058  O
       atom_frac         0.49998576        0.00000000        0.51503966  O
       atom_frac         0.80554747        0.24999996        0.53417948  O
       atom_frac         0.99998919        0.00000000        0.53417991  Ti
       atom_frac         0.49998926        0.24999996        0.53417991  Ti
       atom_frac         0.19443106        0.24999996        0.53418035  O
       atom_frac         0.49999261        0.00000000        0.55332016  O
       atom_frac         0.99998310        0.00000000        0.56425924  O
       atom_frac         0.30554481        0.24999996        0.58339905  O
       atom_frac         0.49998652        0.00000000        0.58339948  Ti
       atom_frac         0.99998660        0.24999996        0.58339948  Ti
       atom_frac         0.69442824        0.24999996        0.58339993  O
       atom_frac         0.99998995        0.00000000        0.60253973  O
       atom_frac         0.49998043        0.00000000        0.61347883  O
       atom_frac         0.80554214        0.24999996        0.63261862  O
       atom_frac         0.99998386        0.00000000        0.63261907  Ti
       atom_frac         0.49998393        0.24999996        0.63261907  Ti
       atom_frac         0.19442557        0.24999996        0.63261951  O
       atom_frac         0.49998728        0.00000000        0.65175931  O
       atom_frac         0.99999376        0.50000008        0.36738093  O
       atom_frac         0.30555562        0.75000004        0.38652074  O
       atom_frac         0.49999733        0.50000008        0.38652117  Ti
       atom_frac         0.99999726        0.75000004        0.38652117  Ti
       atom_frac         0.69443905        0.75000004        0.38652162  O
       atom_frac         0.00000076        0.50000008        0.40566142  O
       atom_frac         0.49999124        0.50000008        0.41660052  O
       atom_frac         0.80555280        0.75000004        0.43574031  O
       atom_frac         0.99999452        0.50000008        0.43574076  Ti
       atom_frac         0.49999459        0.75000004        0.43574076  Ti
       atom_frac         0.19443639        0.75000004        0.43574120  O
       atom_frac         0.49999810        0.50000008        0.45488099  O
       atom_frac         0.99998843        0.50000008        0.46582009  O
       atom_frac         0.30555014        0.75000004        0.48495989  O
       atom_frac         0.49999185        0.50000008        0.48496034  Ti
       atom_frac         0.99999193        0.75000004        0.48496034  Ti
       atom_frac         0.69443372        0.75000004        0.48496077  O
       atom_frac         0.99999528        0.50000008        0.50410058  O
       atom_frac         0.49998576        0.50000008        0.51503966  O
       atom_frac         0.80554747        0.75000004        0.53417948  O
       atom_frac         0.99998919        0.50000008        0.53417991  Ti
       atom_frac         0.49998926        0.75000004        0.53417991  Ti
       atom_frac         0.19443106        0.75000004        0.53418035  O
       atom_frac         0.49999261        0.50000008        0.55332016  O
       atom_frac         0.99998310        0.50000008        0.56425924  O
       atom_frac         0.30554481        0.75000004        0.58339905  O
       atom_frac         0.49998652        0.50000008        0.58339948  Ti
       atom_frac         0.99998660        0.75000004        0.58339948  Ti
       atom_frac         0.69442824        0.75000004        0.58339993  O
       atom_frac         0.99998995        0.50000008        0.60253973  O
       atom_frac         0.49998043        0.50000008        0.61347883  O
       atom_frac         0.80554214        0.75000004        0.63261862  O
       atom_frac         0.99998386        0.50000008        0.63261907  Ti
       atom_frac         0.49998393        0.75000004        0.63261907  Ti
       atom_frac         0.19442557        0.75000004        0.63261951  O
       atom_frac         0.49998728        0.50000008        0.65175931  O

  Slab Identifier: This is Z-oriented slab and maximum thickness of the vacuum is: 47.736 Angstrom.
 
  Finished reading input file 'geometry.in'.
 

 
  Consistency checks for stacksize environment parameter are next.
 
  | Maximum stacksize for task 0: unlimited
  | Maximum stacksize for task 1: unlimited
  | Maximum stacksize for task 2: unlimited
  | Maximum stacksize for task 3: unlimited
  | Maximum stacksize for task 4: unlimited
  | Maximum stacksize for task 5: unlimited
  | Maximum stacksize for task 6: unlimited
  | Maximum stacksize for task 7: unlimited
  | Maximum stacksize for task 8: unlimited
  | Maximum stacksize for task 9: unlimited
  | Maximum stacksize for task 10: unlimited
  | Maximum stacksize for task 11: unlimited
  | Maximum stacksize for task 12: unlimited
  | Maximum stacksize for task 13: unlimited
  | Maximum stacksize for task 14: unlimited
  | Maximum stacksize for task 15: unlimited
  | Maximum stacksize for task 16: unlimited
  | Maximum stacksize for task 17: unlimited
  | Maximum stacksize for task 18: unlimited
  | Maximum stacksize for task 19: unlimited
  | Maximum stacksize for task 20: unlimited
  | Maximum stacksize for task 21: unlimited
  | Maximum stacksize for task 22: unlimited
  | Maximum stacksize for task 23: unlimited
  | Maximum stacksize for task 24: unlimited
  | Maximum stacksize for task 25: unlimited
  | Maximum stacksize for task 26: unlimited
  | Maximum stacksize for task 27: unlimited
  | Maximum stacksize for task 28: unlimited
  | Maximum stacksize for task 29: unlimited
  | Maximum stacksize for task 30: unlimited
  | Maximum stacksize for task 31: unlimited
  | Current stacksize for task 0: unlimited
  | Current stacksize for task 1: unlimited
  | Current stacksize for task 2: unlimited
  | Current stacksize for task 3: unlimited
  | Current stacksize for task 4: unlimited
  | Current stacksize for task 5: unlimited
  | Current stacksize for task 6: unlimited
  | Current stacksize for task 7: unlimited
  | Current stacksize for task 8: unlimited
  | Current stacksize for task 9: unlimited
  | Current stacksize for task 10: unlimited
  | Current stacksize for task 11: unlimited
  | Current stacksize for task 12: unlimited
  | Current stacksize for task 13: unlimited
  | Current stacksize for task 14: unlimited
  | Current stacksize for task 15: unlimited
  | Current stacksize for task 16: unlimited
  | Current stacksize for task 17: unlimited
  | Current stacksize for task 18: unlimited
  | Current stacksize for task 19: unlimited
  | Current stacksize for task 20: unlimited
  | Current stacksize for task 21: unlimited
  | Current stacksize for task 22: unlimited
  | Current stacksize for task 23: unlimited
  | Current stacksize for task 24: unlimited
  | Current stacksize for task 25: unlimited
  | Current stacksize for task 26: unlimited
  | Current stacksize for task 27: unlimited
  | Current stacksize for task 28: unlimited
  | Current stacksize for task 29: unlimited
  | Current stacksize for task 30: unlimited
  | Current stacksize for task 31: unlimited
 
  Consistency checks for the contents of control.in are next.
 
  MPI_IN_PLACE appears to work with this MPI implementation.
  | Keeping use_mpi_in_place .true. (see manual).
  Target number of points in a grid batch is not set. Defaulting to  100
  Method for grid partitioning is not set. Defaulting to parallel hash+maxmin partitioning.
  Batch size limit is not set. Defaulting to    200
  By default, will store active basis functions for each batch.
  If in need of memory, prune_basis_once .false. can be used to disable this option.
  communication_type for Hartree potential was not specified.
  Defaulting to calc_hartree .
  Defaulting to Pulay charge density mixer.
  Pulay mixer: Number of relevant iterations not set.
  Defaulting to    8 iterations.
  Pulay mixer: Number of initial linear mixing iterations not set.
  Defaulting to    0 iterations.
  Work space size for distributed Hartree potential not set.
  Defaulting to   0.200000E+03 MB.
  Mixing parameter for charge density mixing has not been set.
  Using default: charge_mix_param =     0.0500.
  The mixing parameter will be adjusted in iteration number     2 of each s.c.f. cycle (i.e., each geometry step).
  Algorithm-dependent basis array size parameters:
  | n_max_pulay                         :        8
  Maximum number of self-consistency iterations not provided.
  Presetting  1000 iterations.
  Presetting      1001 iterations before the initial mixing cycle
  is restarted anyway using the sc_init_iter criterion / keyword.
  Presetting a factor      1.000 between actual scf density residual
  and density convergence criterion sc_accuracy_rho below which sc_init_iter
  takes no effect.
 * No s.c.f. convergence criteria (sc_accuracy_*) were provided in control.in.
 * The run will proceed with a reasonable default guess, but please check whether.
 * the s.c.f. cycles seem to take too much or too little time.
  Calculation of forces was not defined in control.in. No forces will be calculated.
  Geometry relaxation not requested: no relaxation will be performed.
 * Notice: The s.c.f. convergence criterion sc_accuracy_rho was not provided.
 * We used to stop in this case, and ask the user to provide reasonable
 * scf convergence criteria. However, this led some users to employ criteria
 * that led to extremely long run times, e.g., for simple relaxation.
 * We now preset a default value for sc_accuracy_rho if it is not set.
 * You may still wish to check if this setting is too tight or too loose for your needs.
 * Based on n_atoms and forces and force-correction status, FHI-aims chose sc_accuracy_rho =  0.346410E-05 .
  No accuracy limit for integral partition fn. given. Defaulting to  0.1000E-14.
  No threshold value for u(r) in integrations given. Defaulting to  0.1000E-05.
  No occupation type (smearing scheme) given. Defaulting to Gaussian broadening, width =  0.1000E-01 eV.
  The width will be adjusted in iteration number     2 of each s.c.f. cycle (i.e., each geometry step).
  No accuracy for occupation numbers given. Defaulting to  0.1000E-12.
  No threshold value for occupation numbers given. Defaulting to  0.0000E+00.
  No accuracy for fermi level given. Defaulting to  0.1000E-19.
  Maximum # of iterations to find E_F not set. Defaulting to  200.
  Will not use alltoall communication since running on < 1024 CPUs.
  Threshold for basis singularities not set.
  Default threshold for basis singularities:  0.1000E-04
  partition_type (choice of integration weights) for integrals was not specified.
  | Using a version of the partition function of Stratmann and coworkers ('stratmann_sparse').
  | At each grid point, the set of atoms used to build the partition table is smoothly restricted to
  | only those atoms whose free-atom density would be non-zero at that grid point.
  Partitioning for Hartree potential was not defined. Using partition_type for integrals.
  | Adjusted default value of keyword multip_moments_threshold to:       0.10000000E-11
  | This value may affect high angular momentum components of the Hartree potential in periodic systems.
  Spin handling was not defined in control.in. Defaulting to unpolarized case.
  Angular momentum expansion for Kerker preconditioner not set explicitly.
  | Using default value of   0
  No explicit requirement for turning off preconditioner.
  | By default, it will be turned off when the charge convergence reaches
  | sc_accuracy_rho  =   0.346410E-05
  No special mixing parameter while Kerker preconditioner is on.
  Using default: charge_mix_param =     0.0500.
  No q(lm)/r^(l+1) cutoff set for long-range Hartree potential.
  | Using default value of  0.100000E-09 .
  | Verify using the multipole_threshold keyword.
  Defaulting to new monopole extrapolation.
  Density update method: automatic selection selected.
  Using density matrix based charge density update.
  Using density matrix based charge density update.
  Using packed matrix style: index .
  Defaulting to use time-reversal symmetry for k-point grid.
  Charge integration errors on the 3D integration grid will be compensated
  by explicit normalization and distribution of residual charges.
  Use the "compensate_multipole_errors" flag to change this behaviour.
  Set 'collect_eigenvectors' to be '.true.' for all serial calculations. This is mandatory.
  Set 'collect_eigenvectors' to be '.true.' for KS_method lapack_fast and serial.
  Found potential conflicts with setting 'use_local_index' for this calculation. Will not set it.
 
  Consistency checks for the contents of geometry.in are next.
 

  Range separation radius for Ewald summation (hartree_convergence_parameter):      4.80729614 bohr.
  Number of empty states per atom not set in control.in - providing a guess from actual geometry.
  | Total number of empty states used during s.c.f. cycle:      276
  If you use a very high smearing, use empty_states (per atom!) in control.in to increase this value.
  * Since a DOS, bandstructure or SOC calculation was requested, the number of empty states requested was INCREASED.
  | Number of empty states (old):     552.0000000
  | Number of empty states (new):     562.0000000

  Structure-dependent array size parameters: 
  | Maximum number of distinct radial functions  :       39
  | Maximum number of basis functions            :     1416
  | Number of Kohn-Sham states (occupied + empty):      737
------------------------------------------------------------
  After read_input_data [GB]:    629.93

  Performing system and environment tests:
  *** Environment variable OMP_NUM_THREADS is not set
  *** For performance reasons you might want to set it to 1
  | Checking for ScaLAPACK...
  | Testing pdtran()...
  | All pdtran() tests passed.
  After prepare_system [GB]:    629.84

------------------------------------------------------------
          Preparing all fixed parts of the calculation.
------------------------------------------------------------
  Determining machine precision:
    2.225073858507201E-308
  Setting up grids for atomic and cluster calculations.

  Creating wave function, potential, and density for free atoms.
  Runtime choices for atomic solver:
  | atomic solver xc        : PBE
  | compute density gradient: 1
  | compute kinetic density : F

  Species: Ti

  List of occupied orbitals and eigenvalues:
    n    l              occ      energy [Ha]    energy [eV]
    1    0           2.0000      -179.959082     -4896.9358
    2    0           2.0000       -19.727662      -536.8170
    3    0           2.0000        -2.283029       -62.1244
    4    0           2.0000        -0.148384        -4.0377
    2    1           6.0000       -16.317278      -444.0157
    3    1           6.0000        -1.409348       -38.3503
    3    2           2.0000        -0.139340        -3.7916


  Species: O

  List of occupied orbitals and eigenvalues:
    n    l              occ      energy [Ha]    energy [eV]
    1    0           2.0000       -18.926989      -515.0296
    2    0           2.0000        -0.880247       -23.9527
    2    1           4.0000        -0.331514        -9.0210


  Species: O1

  List of occupied orbitals and eigenvalues:
    n    l              occ      energy [Ha]    energy [eV]
    1    0           2.0000       -18.927378      -515.0401
    2    0           2.0000        -0.880539       -23.9607
    2    1           4.0000        -0.331811        -9.0290


  Adding cutoff potential to free-atom effective potential.
  Creating fixed part of basis set: Ionic, confined, hydrogenic.
 
  Ti                   ion:

  List of free ionic orbitals and eigenvalues:
    n    l      energy [Ha]    energy [eV]
    1    0      -180.819616     -4920.3521
    2    0       -20.608761      -560.7929
    3    0        -3.115729       -84.7833
    4    0        -0.697188       -18.9715
    2    1       -17.196209      -467.9327
    3    1        -2.231296       -60.7167
    3    2        -0.911363       -24.7995


  List of ionic basis orbitals and eigenvalues:
    n    l      energy [Ha]    energy [eV]    outer radius [A]
    4    1        -0.517739       -14.0884       4.592117
    4    0        -0.696824       -18.9615       4.536321

 
  Ti                   hydrogenic:
 
  List of hydrogenic basis orbitals: 
    n    l      effective z      eigenvalue [eV]  inner max. [A]     outer max. [A]     outer radius [A]   
    4    3         8.000000       -54.4222           1.059019           1.059019           4.267343
    3    2         2.700000       -10.7798           1.726925           1.726925           4.592117
 
 
  O                    hydrogenic:
 
  List of hydrogenic basis orbitals: 
    n    l      effective z      eigenvalue [eV]  inner max. [A]     outer max. [A]     outer radius [A]   
    2    1         1.800000       -10.9749           1.164242           1.164242           4.578029
    3    2         7.600000       -87.3180           0.624125           0.624125           3.251020
    3    0         6.400000       -61.9207           0.061167           1.081902           4.001998
 
 
  O1                   ion:

  List of free ionic orbitals and eigenvalues:
    n    l      energy [Ha]    energy [eV]
    1    0       -20.485570      -557.4407
    2    0        -2.134830       -58.0917
    2    1        -1.577627       -42.9294


  List of ionic basis orbitals and eigenvalues:
    n    l      energy [Ha]    energy [eV]    outer radius [A]
    2    1        -1.577621       -42.9293       3.541477

 
  O1                   hydrogenic:
 
  List of hydrogenic basis orbitals: 
    n    l      effective z      eigenvalue [eV]  inner max. [A]     outer max. [A]     outer radius [A]   
    2    1         1.800000       -11.0118           1.178562           1.178562           5.432602
    3    2         7.600000       -87.3182           0.624125           0.624125           3.541477
    3    0         6.400000       -61.9209           0.061167           1.081902           4.306578
    4    3        11.600000      -114.4238           0.731631           0.731631           3.585037
    3    1         6.200000       -58.1113           0.255680           1.030270           4.306578
    3    2         5.600000       -47.4081           0.847233           0.847233           4.413171
    5    4        17.600000      -168.5799           0.749740           0.749740           3.372465
    1    0         0.750000        -7.6499           0.705284           0.705284           5.366593
    4    3        10.800000       -99.1854           0.787313           0.787313           3.764702
    4    2         4.700000       -18.6841           0.758962           2.365807           5.499423
    2    0         6.800000      -157.2818           0.059689           0.406863           2.739620
    1    0        12.000000     -1959.2197           0.043971           0.043971           0.816724
    1    0        10.000000     -1360.5692           0.052821           0.052821           0.981101
    1    0         6.000000      -489.8049           0.088266           0.088266           1.561224
    2    0        10.000000      -340.1423           0.040365           0.278524           2.093567
    2    1         8.000000      -217.6911           0.265231           0.265231           2.365807
    2    1         6.000000      -122.4512           0.351348           0.351348           2.841960
    3    2         8.000000       -96.7515           0.594340           0.594340           3.455938
 
  Creating atomic-like basis functions for current effective potential.

  Species Ti                  :

  List of atomic basis orbitals and eigenvalues:
    n    l      energy [Ha]    energy [eV]    outer radius [A]
    1    0      -179.959082     -4896.9358       0.490254
    2    0       -19.727662      -536.8170       1.491292
    3    0        -2.283029       -62.1244       4.014314
    4    0        -0.148384        -4.0377       4.592117
    2    1       -16.317278      -444.0157       1.585290
    3    1        -1.409348       -38.3503       4.267343
    3    2        -0.139340        -3.7916       4.536321


  Species O                   :

  List of atomic basis orbitals and eigenvalues:
    n    l      energy [Ha]    energy [eV]    outer radius [A]
    1    0       -18.926989      -515.0296       1.415765
    2    0        -0.880247       -23.9527       4.413171
    2    1        -0.331514        -9.0210       4.522403


  Species O1                  :

  List of atomic basis orbitals and eigenvalues:
    n    l      energy [Ha]    energy [eV]    outer radius [A]
    1    0       -18.927378      -515.0401       1.415765
    2    0        -0.880539       -23.9607       5.048385
    2    1        -0.331811        -9.0290       5.301386

  Assembling full basis from fixed parts.
  | Species Ti :   atomic orbital   1 s accepted.
  | Species Ti :   atomic orbital   2 s accepted.
  | Species Ti :   atomic orbital   3 s accepted.
  | Species Ti :    ionic orbital   4 s accepted.
  | Species Ti :   atomic orbital   4 s accepted.
  | Species Ti :   atomic orbital   2 p accepted.
  | Species Ti :   atomic orbital   3 p accepted.
  | Species Ti :    ionic orbital   4 p accepted.
  | Species Ti :   atomic orbital   3 d accepted.
  | Species Ti :    hydro orbital   3 d accepted.
  | Species Ti :    hydro orbital   4 f accepted.
  | Species O :   atomic orbital   1 s accepted.
  | Species O :    hydro orbital   3 s accepted.
  | Species O :   atomic orbital   2 s accepted.
  | Species O :   atomic orbital   2 p accepted.
  | Species O :    hydro orbital   2 p accepted.
  | Species O :    hydro orbital   3 d accepted.
  | Species O1 :    hydro orbital   1 s accepted.
  | Species O1 :    hydro orbital   1 s accepted.
  | Species O1 :   atomic orbital   1 s accepted.
  | Species O1 :    hydro orbital   1 s accepted.
  | Species O1 :    hydro orbital   2 s accepted.
  | Species O1 :    hydro orbital   2 s accepted.
  | Species O1 :    hydro orbital   3 s accepted.
  | Species O1 :   atomic orbital   2 s accepted.
  | Species O1 :    hydro orbital   1 s accepted.
  | Species O1 :    hydro orbital   2 p accepted.
  | Species O1 :    hydro orbital   2 p accepted.
  | Species O1 :    ionic orbital   2 p accepted.
  | Species O1 :    hydro orbital   3 p accepted.
  | Species O1 :   atomic orbital   2 p accepted.
  | Species O1 :    hydro orbital   2 p accepted.
  | Species O1 :    hydro orbital   3 d accepted.
  | Species O1 :    hydro orbital   3 d accepted.
  | Species O1 :    hydro orbital   3 d accepted.
  | Species O1 :    hydro orbital   4 d accepted.
  | Species O1 :    hydro orbital   4 f accepted.
  | Species O1 :    hydro orbital   4 f accepted.
  | Species O1 :    hydro orbital   5 g accepted.
 
  Basis size parameters after reduction:
  | Total number of radial functions:       39
  | Total number of basis functions :     1416
 
  Per-task memory consumption for arrays in subroutine allocate_ext:
  |          10.398828MB.
  Testing on-site integration grid accuracy.
  |  Species  Function  <phi|h_atom|phi> (log., in eV)  <phi|h_atom|phi> (rad., in eV)
           1        1              -4896.9357674450              -4896.9322838106
           1        2               -536.8170048508               -536.8169722776
           1        3                -62.1243896260                -62.1243889401
           1        4                 -3.2653235630                 -3.2692838824
           1        5                  6.7987747276                  6.5460721871 ***
           1        6               -444.0157161949               -444.0157165643
           1        7                -38.3503235548                -38.3503234985
           1        8                  0.2923930877                  0.2745948114
           1        9                 -3.7933400649                 -3.7959244171
           1       10                  6.3288803616                  6.2510614935 ***
           1       11                 27.8451455747                 27.8452636415
           2       12               -515.0295626295               -515.0294562869
           2       13                 15.1698434419                 15.1699322205
           2       14                -21.6038822678                -21.6039118108
           2       15                 -9.0211123393                 -9.0212703513
           2       16                  8.3047696391                  8.2854840999
           2       17                 45.8428042125                 45.8427461223
           3       18               -272.9322507263               -272.9201921991
           3       19               1665.9089384428               1665.9689460231 ***
           3       20               2095.2037268945               2095.2740317228 ***
           3       21               3047.3679718515               3047.0126722257 ***
           3       22               3234.6000205573               3231.5687072350 ***
           3       23               2428.4660356492               2422.2375592442 ***
           3       24                896.7802862158                893.3913916184 ***
           3       25               3128.2108268826               3108.2674940926 ***
           3       26                 71.8616615187                 71.1575836879 ***
           3       27                 15.4122562036                 15.4122564509
           3       28                101.7989356251                101.7989355629
           3       29                121.1064459338                121.1064460850
           3       30                271.5759585347                271.5759823152
           3       31                159.3966255928                159.3962927971
           3       32                153.6473243407                153.6504704040
           3       33                 50.7421815376                 50.7421815945
           3       34                 88.5010368311                 88.5010331057
           3       35                 82.9872957917                 82.9873669217
           3       36                 36.7418806245                 36.7419113217
           3       37                 85.4133898762                 85.4133899074
           3       38                115.1018427582                115.1018451832
           3       39                142.1023296234                142.1023296272
 * Note: Onsite integrals marked "***" above are less accurate than
 * onsite_accuracy_threshold =    0.03000 eV. Usually, this is harmless.
 * When in doubt, tighten the "radial" and/or "radial_multiplier" flags to check.

  Preparing densities etc. for the partition functions (integrals / Hartree potential).

  Preparations completed.
  max(cpu_time)          :      0.315 s.
  Wall clock time (cpu1) :      0.313 s.
------------------------------------------------------------
  After prepare_scf [GB]:    627.85

  Initializing index lists of integration centers etc. from given atomic structure:
  Mapping all atomic coordinates to central unit cell.

  Initializing the k-points
  Using symmetry for reducing the k-points
  | k-points reduced from:       64 to       34
  | Number of k-points                             :        34
  The eigenvectors in the calculations are COMPLEX.
  | K-points in task   0:         1
  | K-points in task   1:         2
  | K-points in task   2:         2
  | K-points in task   3:         1
  | K-points in task   4:         1
  | K-points in task   5:         1
  | K-points in task   6:         1
  | K-points in task   7:         1
  | K-points in task   8:         1
  | K-points in task   9:         1
  | K-points in task  10:         1
  | K-points in task  11:         1
  | K-points in task  12:         1
  | K-points in task  13:         1
  | K-points in task  14:         1
  | K-points in task  15:         1
  | K-points in task  16:         1
  | K-points in task  17:         1
  | K-points in task  18:         1
  | K-points in task  19:         1
  | K-points in task  20:         1
  | K-points in task  21:         1
  | K-points in task  22:         1
  | K-points in task  23:         1
  | K-points in task  24:         1
  | K-points in task  25:         1
  | K-points in task  26:         1
  | K-points in task  27:         1
  | K-points in task  28:         1
  | K-points in task  29:         1
  | K-points in task  30:         1
  | K-points in task  31:         1
  | Number of basis functions in the Hamiltonian integrals :     10437
  | Number of basis functions in a single unit cell        :      1416
  | Number of centers in hartree potential         :      4053
  | Number of centers in hartree multipole         :      1771
  | Number of centers in electron density summation:      1373
  | Number of centers in basis integrals           :      1443
  | Number of centers in integrals                 :       660
  | Number of centers in hamiltonian               :      1973
  | Consuming         36 KiB for k_phase.
  | Number of super-cells (origin) [n_cells]                     :         243
  | Number of super-cells (after PM_index) [n_cells]             :          68
  | Number of super-cells in hamiltonian [n_cells_in_hamiltonian]:          68
  | Size of matrix packed + index [n_hamiltonian_matrix_size] :     2674829
  After initialize_bc_dependent_lists [GB]:    627.83

------------------------------------------------------------
          Begin self-consistency loop: Initialization.

          Date     :  20241117, Time     :  235550.361
------------------------------------------------------------
  Available memory per node after initialize_hartree_non_periodic_ewald [GB]:    627.83
  | Estimated reciprocal-space cutoff momentum G_max:         1.92197580 bohr^-1 .
  | Reciprocal lattice points for long-range Hartree potential:    2096
  Available memory per node after initialize_recip_hartree_potential [GB]:    627.83
  Available memory per node after initialize_scalapack [GB]:    627.83
  Available memory per node after aims_elsi_init_scf [GB]:    627.83
  Available memory per node after initialize_fixed_grids [GB]:    627.83
  Partitioning the integration grid into batches with parallel hashing+maxmin method.
  | Number of batches:     4754
  | Maximal batch size:     191
  | Minimal batch size:      49
  | Average batch size:      96.747
  | Standard deviation of batch sizes:      11.511

  Integration load balanced across    32 MPI tasks.
  Work distribution over tasks is as follows:
  Task     0 has      14372 integration points.
  Task     1 has      14370 integration points.
  Task     2 has      14368 integration points.
  Task     3 has      14337 integration points.
  Task     4 has      14408 integration points.
  Task     5 has      14424 integration points.
  Task     6 has      14410 integration points.
  Task     7 has      14332 integration points.
  Task     8 has      14333 integration points.
  Task     9 has      14372 integration points.
  Task    10 has      14337 integration points.
  Task    11 has      14344 integration points.
  Task    12 has      14339 integration points.
  Task    13 has      14335 integration points.
  Task    14 has      14337 integration points.
  Task    15 has      14408 integration points.
  Task    16 has      14422 integration points.
  Task    17 has      14352 integration points.
  Task    18 has      14398 integration points.
  Task    19 has      14372 integration points.
  Task    20 has      14426 integration points.
  Task    21 has      14368 integration points.
  Task    22 has      14351 integration points.
  Task    23 has      14336 integration points.
  Task    24 has      14390 integration points.
  Task    25 has      14410 integration points.
  Task    26 has      14409 integration points.
  Task    27 has      14411 integration points.
  Task    28 has      14333 integration points.
  Task    29 has      14344 integration points.
  Task    30 has      14390 integration points.
  Task    31 has      14398 integration points.
  Available memory per node after partition_grid [GB]:    627.84
  Initializing partition tables, free-atom densities, potentials, etc. across the integration grid (initialize_grid_storage).
  | initialize_grid_storage: Actual outermost partition radius vs. multipole_radius_free
  | (-- VB: in principle, multipole_radius_free should be larger, hence this output)
  | Species        1: Confinement radius =              4.999999999999999 AA, multipole_radius_free =              5.002391649902235 AA.
  | Species        1: outer_partition_radius set to              5.002391649902235 AA .
  | Species        2: Confinement radius =              4.999999999999999 AA, multipole_radius_free =              5.048384829883283 AA.
  | Species        2: outer_partition_radius set to              5.048384829883283 AA .
  | Species        3: Confinement radius =              6.000000000000000 AA, multipole_radius_free =              6.064445521808699 AA.
  | Species        3: outer_partition_radius set to              6.064445521808699 AA .
  | The sparse table of interatomic distances needs      10015.55 kbyte instead of     16657.99 kbyte of memory.
  | Net number of integration points:   459936
  | of which are non-zero points    :   378164
  | Numerical average free-atom electrostatic potential    :     -5.22855859 eV
  Available memory per node after initialize_grid_storage_p1 [GB]:    627.84
  Renormalizing the initial density to the exact electron count on the 3D integration grid.
  | Initial density: Formal number of electrons (from input files) :     912.0000000000
  | Integrated number of electrons on 3D grid     :     911.9957652913
  | Charge integration error                      :      -0.0042347087
  | Normalization factor for density and gradient :       1.0000046433
  Renormalizing the free-atom superposition density to the exact electron count on the 3D integration grid.
  | Formal number of electrons (from input files) :     912.0000000000
  | Integrated number of electrons on 3D grid     :     911.9957652913
  | Charge integration error                      :      -0.0042347087
  | Normalization factor for density and gradient :       1.0000046433
  Obtaining max. number of non-zero basis functions in each batch (get_n_compute_maxes).
  | Maximal number of non-zero basis functions:      880 in task     0
  | Maximal number of non-zero basis functions:      859 in task     1
  | Maximal number of non-zero basis functions:      874 in task     2
  | Maximal number of non-zero basis functions:      864 in task     3
  | Maximal number of non-zero basis functions:      908 in task     4
  | Maximal number of non-zero basis functions:      826 in task     5
  | Maximal number of non-zero basis functions:      873 in task     6
  | Maximal number of non-zero basis functions:      870 in task     7
  | Maximal number of non-zero basis functions:      871 in task     8
  | Maximal number of non-zero basis functions:      929 in task     9
  | Maximal number of non-zero basis functions:      859 in task    10
  | Maximal number of non-zero basis functions:      857 in task    11
  | Maximal number of non-zero basis functions:      846 in task    12
  | Maximal number of non-zero basis functions:      870 in task    13
  | Maximal number of non-zero basis functions:      864 in task    14
  | Maximal number of non-zero basis functions:      861 in task    15
  | Maximal number of non-zero basis functions:      877 in task    16
  | Maximal number of non-zero basis functions:      860 in task    17
  | Maximal number of non-zero basis functions:      888 in task    18
  | Maximal number of non-zero basis functions:      861 in task    19
  | Maximal number of non-zero basis functions:      864 in task    20
  | Maximal number of non-zero basis functions:      854 in task    21
  | Maximal number of non-zero basis functions:      858 in task    22
  | Maximal number of non-zero basis functions:      865 in task    23
  | Maximal number of non-zero basis functions:      873 in task    24
  | Maximal number of non-zero basis functions:      898 in task    25
  | Maximal number of non-zero basis functions:      863 in task    26
  | Maximal number of non-zero basis functions:      876 in task    27
  | Maximal number of non-zero basis functions:      868 in task    28
  | Maximal number of non-zero basis functions:      887 in task    29
  | Maximal number of non-zero basis functions:      857 in task    30
  | Maximal number of non-zero basis functions:      876 in task    31
  Available memory per node after get_n_compute_maxes_p1 [GB]:    627.83
  Allocating       15.924 MB for KS_eigenvector_complex
  Available memory per node after allocate_matrices [GB]:    627.56
  Available memory per node after init_comm_sparse_local_matrix_scalapack [GB]:    627.52
  Integrating Hamiltonian matrix: batch-based integration.
  Time summed over all CPUs for integration: real work       80.316 s, elapsed       83.562 s
  Available memory per node after integrate hamiltonian matrix [GB]:    626.09
  Integrating overlap matrix.
  Time summed over all CPUs for integration: real work       21.792 s, elapsed       22.782 s
  Available memory per node after integrate ovlp matrix [GB]:    625.28
  Available memory per node after ASI_callbacks invoke [GB]:    625.28
  Available memory per node after save_overlap_scalapack [GB]:    625.28

  Updating Kohn-Sham eigenvalues and eigenvectors using ELSI and the (modified) LAPACK eigensolver.
  Singularity check in k-point 32, task 0 (analysis for other k-points/tasks may follow below):
  Overlap matrix is not singular
  | Lowest and highest eigenvalues :  0.6128E-03,  0.7901E+01
  Finished singularity check of overlap matrix
  | Time :     1.439 s
  Starting LAPACK eigensolver
  Finished Cholesky decomposition
  | Time :     0.271 s
  Finished transformation to standard eigenproblem
  | Time :     0.390 s
  Finished solving standard eigenproblem
  | Time :     1.753 s
  Finished back-transformation of eigenvectors
  | Time :     0.179 s

  Obtaining occupation numbers and electronic chemical potential using ELSI.
  | Note that, for insulating systems, the printed 'chemical potential' value is not uniquely defined.
  | It can be anywhere in the energy gap, as long as it correctly separates occupied and unoccupied states.
  | In systems with a gap, the physically relevant chemical potential is the VBM or HOMO.

  | Chemical potential (Fermi level):    -7.06745485 eV
  Available memory per node after advance_KS_solution [GB]:    620.77
  Writing Kohn-Sham eigenvalues.
  K-point:       1 at    0.000000    0.000000    0.000000 (in units of recip. lattice)

  State    Occupation    Eigenvalue [Ha]    Eigenvalue [eV]
      1       2.00000        -179.962422        -4897.02667
      2       2.00000        -179.962422        -4897.02667
      3       2.00000        -179.962422        -4897.02667
      4       2.00000        -179.962422        -4897.02667
      5       2.00000        -179.962422        -4897.02667
      6       2.00000        -179.962422        -4897.02667
      7       2.00000        -179.962422        -4897.02667
      8       2.00000        -179.962422        -4897.02667
      9       2.00000        -179.962422        -4897.02665
     10       2.00000        -179.962422        -4897.02665
     11       2.00000        -179.962422        -4897.02665
     12       2.00000        -179.962422        -4897.02665
     13       2.00000        -179.962422        -4897.02665
     14       2.00000        -179.962422        -4897.02665
     15       2.00000        -179.962422        -4897.02665
     16       2.00000        -179.962422        -4897.02665
     17       2.00000        -179.962368        -4897.02519
     18       2.00000        -179.962368        -4897.02519
     19       2.00000        -179.962368        -4897.02519
     20       2.00000        -179.962368        -4897.02519
     21       2.00000        -179.961232        -4896.99428
     22       2.00000        -179.961232        -4896.99428
     23       2.00000        -179.961232        -4896.99428
     24       2.00000        -179.961232        -4896.99428
     25       2.00000         -19.737982         -537.09781
     26       2.00000         -19.737982         -537.09781
     27       2.00000         -19.737982         -537.09781
     28       2.00000         -19.737982         -537.09781
     29       2.00000         -19.737982         -537.09781
     30       2.00000         -19.737982         -537.09781
     31       2.00000         -19.737982         -537.09781
     32       2.00000         -19.737982         -537.09781
     33       2.00000         -19.737981         -537.09779
     34       2.00000         -19.737981         -537.09779
     35       2.00000         -19.737981         -537.09779
     36       2.00000         -19.737981         -537.09779
     37       2.00000         -19.737981         -537.09779
     38       2.00000         -19.737981         -537.09779
     39       2.00000         -19.737981         -537.09779
     40       2.00000         -19.737981         -537.09779
     41       2.00000         -19.737907         -537.09578
     42       2.00000         -19.737907         -537.09578
     43       2.00000         -19.737907         -537.09578
     44       2.00000         -19.737907         -537.09578
     45       2.00000         -19.736672         -537.06216
     46       2.00000         -19.736672         -537.06216
     47       2.00000         -19.736672         -537.06216
     48       2.00000         -19.736672         -537.06216
     49       2.00000         -19.034667         -517.95965
     50       2.00000         -19.034667         -517.95965
     51       2.00000         -19.034667         -517.95965
     52       2.00000         -19.034667         -517.95965
     53       2.00000         -19.034667         -517.95965
     54       2.00000         -19.034667         -517.95965
     55       2.00000         -19.034667         -517.95965
     56       2.00000         -19.034667         -517.95965
     57       2.00000         -19.034667         -517.95965
     58       2.00000         -19.034667         -517.95965
     59       2.00000         -19.034667         -517.95965
     60       2.00000         -19.034667         -517.95965
     61       2.00000         -19.034667         -517.95965
     62       2.00000         -19.034667         -517.95965
     63       2.00000         -19.034667         -517.95965
     64       2.00000         -19.034667         -517.95965
     65       2.00000         -19.034649         -517.95916
     66       2.00000         -19.034649         -517.95916
     67       2.00000         -19.034649         -517.95916
     68       2.00000         -19.034649         -517.95916
     69       2.00000         -19.034649         -517.95916
     70       2.00000         -19.034649         -517.95916
     71       2.00000         -19.034649         -517.95916
     72       2.00000         -19.034649         -517.95916
     73       2.00000         -19.034649         -517.95916
     74       2.00000         -19.034649         -517.95916
     75       2.00000         -19.034649         -517.95916
     76       2.00000         -19.034649         -517.95916
     77       2.00000         -19.034649         -517.95916
     78       2.00000         -19.034649         -517.95916
     79       2.00000         -19.034649         -517.95916
     80       2.00000         -19.034649         -517.95916
     81       2.00000         -19.034649         -517.95915
     82       2.00000         -19.034649         -517.95915
     83       2.00000         -19.034649         -517.95915
     84       2.00000         -19.034649         -517.95915
     85       2.00000         -19.034528         -517.95586
     86       2.00000         -19.034528         -517.95586
     87       2.00000         -19.034528         -517.95586
     88       2.00000         -19.034528         -517.95586
     89       2.00000         -19.034528         -517.95586
     90       2.00000         -19.034528         -517.95586
     91       2.00000         -19.034528         -517.95585
     92       2.00000         -19.034528         -517.95585
     93       2.00000         -19.001839         -517.06634
     94       2.00000         -19.001839         -517.06634
     95       2.00000         -19.001839         -517.06634
     96       2.00000         -19.001839         -517.06634
     97       2.00000         -16.328150         -444.31158
     98       2.00000         -16.328150         -444.31158
     99       2.00000         -16.328150         -444.31158
    100       2.00000         -16.328150         -444.31158
    101       2.00000         -16.328150         -444.31158
    102       2.00000         -16.328150         -444.31158
    103       2.00000         -16.328150         -444.31158
    104       2.00000         -16.328150         -444.31158
    105       2.00000         -16.328150         -444.31156
    106       2.00000         -16.328150         -444.31156
    107       2.00000         -16.328150         -444.31156
    108       2.00000         -16.328150         -444.31156
    109       2.00000         -16.328150         -444.31156
[...]
  |     5        8.631899       -0.631899        3.858436        4.762634        0.010829
  |     6        8.628458       -0.628458        3.842790        4.775356        0.010312
  |     7        8.585247       -0.585247        3.844181        4.731109        0.009957
  |     8        8.624358       -0.624358        3.847063        4.767503        0.009792
  |     9       20.747620        1.252380        5.962774       12.506899        2.133363        0.144583
  |    10       20.736308        1.263692        5.961282       12.504162        2.125863        0.145000
  |    11        8.624358       -0.624358        3.847063        4.767503        0.009792
  |    12        8.616835       -0.616835        3.847822        4.759151        0.009862
  |    13        8.624095       -0.624095        3.847876        4.766272        0.009947
  |    14        8.622939       -0.622939        3.847841        4.765208        0.009890
  |    15       20.752230        1.247770        5.962904       12.508820        2.135470        0.145035
  |    16       20.752506        1.247494        5.963168       12.508454        2.135904        0.144979
  |    17        8.622939       -0.622939        3.847841        4.765208        0.009890
  |    18        8.623665       -0.623665        3.847633        4.766149        0.009883
  |    19        8.623665       -0.623665        3.847633        4.766148        0.009883
  |    20        8.622939       -0.622939        3.847841        4.765209        0.009890
  |    21       20.752230        1.247770        5.962904       12.508820        2.135471        0.145035
  |    22       20.752506        1.247494        5.963168       12.508454        2.135904        0.144979
  |    23        8.622939       -0.622939        3.847841        4.765208        0.009890
  |    24        8.624096       -0.624096        3.847876        4.766273        0.009947
  |    25        8.616835       -0.616835        3.847822        4.759151        0.009862
  |    26        8.624358       -0.624358        3.847063        4.767503        0.009792
  |    27       20.747620        1.252380        5.962774       12.506899        2.133363        0.144584
  |    28       20.736308        1.263692        5.961282       12.504162        2.125863        0.145000
  |    29        8.624358       -0.624358        3.847063        4.767503        0.009792
  |    30        8.585247       -0.585247        3.844181        4.731109        0.009957
  |    31        8.628458       -0.628458        3.842790        4.775356        0.010312
  |    32        8.631899       -0.631899        3.858436        4.762634        0.010829
  |    33       20.746128        1.253872        6.096611       12.433218        2.094417        0.121882
  |    34       20.926041        1.073959        6.050980       12.512442        2.218277        0.144343
  |    35        8.631901       -0.631901        3.858436        4.762636        0.010829
  |    36        8.502472       -0.502472        3.879512        4.612191        0.010769
  |    37        8.502472       -0.502472        3.879512        4.612191        0.010769
  |    38        8.631901       -0.631901        3.858436        4.762635        0.010829
  |    39       20.746128        1.253872        6.096611       12.433218        2.094417        0.121881
  |    40       20.926042        1.073958        6.050980       12.512442        2.218277        0.144343
  |    41        8.631899       -0.631899        3.858436        4.762634        0.010829
  |    42        8.628459       -0.628459        3.842790        4.775356        0.010312
  |    43        8.585247       -0.585247        3.844181        4.731109        0.009957
  |    44        8.624358       -0.624358        3.847063        4.767503        0.009792
  |    45       20.747619        1.252381        5.962774       12.506899        2.133363        0.144583
  |    46       20.736308        1.263692        5.961282       12.504162        2.125864        0.145000
  |    47        8.624357       -0.624357        3.847063        4.767503        0.009792
  |    48        8.616835       -0.616835        3.847822        4.759152        0.009862
  |    49        8.624096       -0.624096        3.847876        4.766273        0.009947
  |    50        8.622939       -0.622939        3.847841        4.765208        0.009890
  |    51       20.752229        1.247771        5.962904       12.508820        2.135470        0.145035
  |    52       20.752506        1.247494        5.963168       12.508454        2.135905        0.144979
  |    53        8.622939       -0.622939        3.847841        4.765208        0.009890
  |    54        8.623666       -0.623666        3.847633        4.766149        0.009883
  |    55        8.623666       -0.623666        3.847633        4.766149        0.009883
  |    56        8.622939       -0.622939        3.847841        4.765208        0.009890
  |    57       20.752229        1.247771        5.962904       12.508820        2.135470        0.145035
  |    58       20.752506        1.247494        5.963168       12.508454        2.135905        0.144979
  |    59        8.622939       -0.622939        3.847841        4.765208        0.009890
  |    60        8.624096       -0.624096        3.847876        4.766273        0.009947
  |    61        8.616835       -0.616835        3.847822        4.759152        0.009862
  |    62        8.624357       -0.624357        3.847063        4.767503        0.009792
  |    63       20.747620        1.252380        5.962774       12.506899        2.133363        0.144583
  |    64       20.736308        1.263692        5.961282       12.504162        2.125864        0.145000
  |    65        8.624358       -0.624358        3.847063        4.767503        0.009792
  |    66        8.585247       -0.585247        3.844181        4.731109        0.009957
  |    67        8.628459       -0.628459        3.842790        4.775356        0.010312
  |    68        8.631899       -0.631899        3.858436        4.762634        0.010829
  |    69       20.746128        1.253872        6.096611       12.433218        2.094417        0.121881
  |    70       20.926042        1.073958        6.050980       12.512442        2.218277        0.144343
  |    71        8.631901       -0.631901        3.858436        4.762635        0.010829
  |    72        8.502472       -0.502472        3.879512        4.612191        0.010769
  |
  | Total      912.000000       -0.000000
 
  Writing Mulliken decomposition to disk ...

  Mulliken analysis                                       :  max(cpu_time)    wall_clock(cpu1)
  | Time for Mulliken analysis                            :         24.111              24.117
  | Total time for Mulliken analysis                      :         24.111              24.117
------------------------------------------------------------
  Post-scf processing of Kohn-Sham eigenvalues on a denser k-point grid.
  | Using dos_kgrid_factors to calculate post-scf total density of states.
  | Electron chemical potential:    -7.295717493053 eV.
  Integrating Hamiltonian matrix: batch-based integration.
  Time summed over all CPUs for integration: real work      102.154 s, elapsed      166.746 s => Consider using load balancing!
  Computing correction matrix for scaled ZORA eigenvalues.
  Processing batch of k-points:     1     1     1
  Starting LAPACK eigensolver
  Finished Cholesky decomposition
  | Time :     0.275 s
  Finished transformation to standard eigenproblem
  | Time :     0.385 s
  Finished solving standard eigenproblem
  | Time :     1.920 s
  Finished back-transformation of eigenvectors
  | Time :     0.173 s
  Evaluating scaled zora correction for each Kohn-Sham eigenstate.
  Processing batch of k-points:     1     1     2
  Evaluating scaled zora correction for each Kohn-Sham eigenstate.
  Processing batch of k-points:     1     1     3
  Evaluating scaled zora correction for each Kohn-Sham eigenstate.
  Processing batch of k-points:     1     2     1
  Evaluating scaled zora correction for each Kohn-Sham eigenstate.
  Processing batch of k-points:     1     2     2
  Evaluating scaled zora correction for each Kohn-Sham eigenstate.
  Processing batch of k-points:     1     2     3
  Evaluating scaled zora correction for each Kohn-Sham eigenstate.
  Processing batch of k-points:     1     3     1
  Evaluating scaled zora correction for each Kohn-Sham eigenstate.
  Processing batch of k-points:     1     3     2
  Evaluating scaled zora correction for each Kohn-Sham eigenstate.
  Processing batch of k-points:     1     3     3
  Evaluating scaled zora correction for each Kohn-Sham eigenstate.
  Processing batch of k-points:     2     1     1
  Evaluating scaled zora correction for each Kohn-Sham eigenstate.
  Processing batch of k-points:     2     1     2
  Evaluating scaled zora correction for each Kohn-Sham eigenstate.
  Processing batch of k-points:     2     1     3
  Evaluating scaled zora correction for each Kohn-Sham eigenstate.
  Processing batch of k-points:     2     2     1
  Evaluating scaled zora correction for each Kohn-Sham eigenstate.
  Processing batch of k-points:     2     2     2
  Evaluating scaled zora correction for each Kohn-Sham eigenstate.
  Processing batch of k-points:     2     2     3
  Evaluating scaled zora correction for each Kohn-Sham eigenstate.
  Processing batch of k-points:     2     3     1
  Evaluating scaled zora correction for each Kohn-Sham eigenstate.
  Processing batch of k-points:     2     3     2
  Evaluating scaled zora correction for each Kohn-Sham eigenstate.
  Processing batch of k-points:     2     3     3
  Evaluating scaled zora correction for each Kohn-Sham eigenstate.
  Processing batch of k-points:     3     1     1
  Evaluating scaled zora correction for each Kohn-Sham eigenstate.
  Processing batch of k-points:     3     1     2
  Evaluating scaled zora correction for each Kohn-Sham eigenstate.
  Processing batch of k-points:     3     1     3
  Evaluating scaled zora correction for each Kohn-Sham eigenstate.
  Processing batch of k-points:     3     2     1
  Evaluating scaled zora correction for each Kohn-Sham eigenstate.
  Processing batch of k-points:     3     2     2
  Evaluating scaled zora correction for each Kohn-Sham eigenstate.
  Processing batch of k-points:     3     2     3
  Evaluating scaled zora correction for each Kohn-Sham eigenstate.
  Processing batch of k-points:     3     3     1
  Evaluating scaled zora correction for each Kohn-Sham eigenstate.
  Processing batch of k-points:     3     3     2
  Evaluating scaled zora correction for each Kohn-Sham eigenstate.
  Processing batch of k-points:     3     3     3
  Evaluating scaled zora correction for each Kohn-Sham eigenstate.
  Now running tetrahedron integration for batch of k-points:     1     1     1
  Now running tetrahedron integration for batch of k-points:     1     1     2
  Now running tetrahedron integration for batch of k-points:     1     1     3
  Now running tetrahedron integration for batch of k-points:     1     2     1
  Now running tetrahedron integration for batch of k-points:     1     2     2
  Now running tetrahedron integration for batch of k-points:     1     2     3
  Now running tetrahedron integration for batch of k-points:     1     3     1
  Now running tetrahedron integration for batch of k-points:     1     3     2
  Now running tetrahedron integration for batch of k-points:     1     3     3
  Now running tetrahedron integration for batch of k-points:     2     1     1
  Now running tetrahedron integration for batch of k-points:     2     1     2
  Now running tetrahedron integration for batch of k-points:     2     1     3
  Now running tetrahedron integration for batch of k-points:     2     2     1
  Now running tetrahedron integration for batch of k-points:     2     2     2
  Now running tetrahedron integration for batch of k-points:     2     2     3
  Now running tetrahedron integration for batch of k-points:     2     3     1
  Now running tetrahedron integration for batch of k-points:     2     3     2
  Now running tetrahedron integration for batch of k-points:     2     3     3
  Now running tetrahedron integration for batch of k-points:     3     1     1
  Now running tetrahedron integration for batch of k-points:     3     1     2
  Now running tetrahedron integration for batch of k-points:     3     1     3
  Now running tetrahedron integration for batch of k-points:     3     2     1
  Now running tetrahedron integration for batch of k-points:     3     2     2
  Now running tetrahedron integration for batch of k-points:     3     2     3
  Now running tetrahedron integration for batch of k-points:     3     3     1
  Now running tetrahedron integration for batch of k-points:     3     3     2
  Now running tetrahedron integration for batch of k-points:     3     3     3
  | writing perturbative DOS (shifted by electron chemical potential) to file KS_dos_total.dat
  | writing perturbative DOS (raw data) to file KS_dos_total_raw.dat

  Perturbative DOS                                        :  max(cpu_time) wall_clock(cpu1)
  | Total Time                                            :        907.070          907.174
  ------------------------------------------------------------

------------------------------------------------------------------------------
  Final output of selected total energy values:

  The following output summarizes some interesting total energy values
  at the end of a run (AFTER all relaxation, molecular dynamics, etc.).

  | Total energy of the DFT / Hartree-Fock s.c.f. calculation      :        -655996.112400524 eV
  | Final zero-broadening corrected energy (caution - metals only) :        -655996.112400524 eV
  | For reference only, the value of 1 Hartree used in FHI-aims is :             27.211384500 eV
  | For reference only, the overall average (free atom contribution
  | + realspace contribution) of the electrostatic potential after
  | s.c.f. convergence is                                          :             -5.024294428 eV

  Before relying on these values, please be sure to understand exactly which
  total energy value is referred to by a given number. Different objects may
  all carry the same name 'total energy'. Definitions:

  Total energy of the DFT / Hartree-Fock s.c.f. calculation:
  | Note that this energy does not include ANY quantities calculated after the
  | s.c.f. cycle, in particular not ANY RPA, MP2, etc. many-body perturbation terms.
  | Scalar relativistic effects have been included in the 'scaled ZORA' approximation.

  Final zero-broadening corrected energy:
  | For metallic systems only, a broadening of the occupation numbers at the Fermi
  | level can be extrapolated back to zero broadening by an electron-gas inspired
  | formula. For all systems that are not real metals, this value can be
  | meaningless and should be avoided.

------------------------------------------------------------------------------
  Methods described in the following list of references were used in this FHI-aims run.
  If you publish the results, please make sure to cite these reference if they apply.
  FHI-aims is an academic code, and for our developers (often, Ph.D. students
  and postdocs), scientific credit in the community is essential.
  Thank you for helping us!

  For any use of FHI-aims, please cite:

    Volker Blum, Ralf Gehrke, Felix Hanke, Paula Havu, Ville Havu,
    Xinguo Ren, Karsten Reuter, and Matthias Scheffler
    'Ab initio molecular simulations with numeric atom-centered orbitals'
    Computer Physics Communications 180, 2175-2196 (2009)
    http://doi.org/10.1016/j.cpc.2009.06.022


  The provided symmetry information was generated with SPGlib:

    Atsushi Togo, Yusuke Seto, Dimitar Pashov
    SPGlib 1.7.3 obtained from http://spglib.sourceforge.net
    Licence: New BSD license
    Copyright (C) 2008 Atsushi Togo


  The ELSI infrastructure was used in your run to solve the Kohn-Sham electronic structure.
  Please check out https://wordpress.elsi-interchange.org to learn more.
  If scalability is important for your project, please acknowledge ELSI by citing:

    V. W-z. Yu, F. Corsetti, A. Garcia, W. P. Huhn, M. Jacquelin, W. Jia,
    B. Lange, L. Lin, J. Lu, W. Mi, A. Seifitokaldani, A. Vazquez-Mayagoitia,
    C. Yang, H. Yang, and V. Blum
    'ELSI: A unified software interface for Kohn-Sham electronic structure solvers'
    Computer Physics Communications 222, 267-285 (2018).
    http://doi.org/10.1016/j.cpc.2017.09.007


  For the real-space grid partitioning and parallelization used in this calculation, please cite:

    Ville Havu, Volker Blum, Paula Havu, and Matthias Scheffler,
    'Efficient O(N) integration for all-electron electronic structure calculation'
    'using numerically tabulated basis functions'
    Journal of Computational Physics 228, 8367-8379 (2009).
    http://doi.org/10.1016/j.jcp.2009.08.008

  Of course, there are many other important community references, e.g., those cited in the
  above references. Our list is limited to references that describe implementations in the
  FHI-aims code. The reason is purely practical (length of this list) - please credit others as well.

------------------------------------------------------------
          Leaving FHI-aims.
          Date     :  20241118, Time     :  001851.892

          Computational steps:
          | Number of self-consistency cycles          :           24
          | Number of SCF (re)initializations          :            1

          Detailed time accounting                     :  max(cpu_time)    wall_clock(cpu1)
          | Total time                                  :     1381.824 s        1381.968 s
          | Preparation time                            :        0.315 s           0.313 s
          | Boundary condition initalization            :        0.075 s           0.075 s
          | Grid partitioning                           :        0.542 s           0.542 s
          | Preloading free-atom quantities on grid     :        1.020 s           1.020 s
          | Free-atom superposition energy              :        0.137 s           0.137 s
          | Total time for integrations                 :       81.799 s          81.804 s
          | Total time for solution of K.-S. equations  :      140.766 s         140.775 s
          | Total time for density update               :       77.019 s          77.025 s
          | Total time for mixing & preconditioning     :      109.888 s         109.897 s
          | Total time for Hartree multipole update     :        0.203 s           0.205 s
          | Total time for Hartree multipole sum        :       16.096 s          16.095 s
          | Total time for total energy evaluation      :        0.027 s           0.034 s
          | Total time for scaled ZORA corrections      :       22.625 s          22.626 s
          | Total time for Mulliken analysis            :       24.117 s          24.117 s

          Partial memory accounting:
          | Residual value for overall tracked memory usage across tasks:     0.000000 MB (should be 0.000000 MB)
          | Peak values for overall tracked memory usage:
          |   Minimum:      213.397 MB (on task  7 after allocating eval_tmp)
          |   Maximum:      213.450 MB (on task 20 after allocating eval_tmp)
          |   Average:      213.420 MB
          | Largest tracked array allocation:
          |   Minimum:       31.848 MB (KS_eigenvector_complex on task  0)
          |   Maximum:       31.848 MB (KS_eigenvector_complex on task  0)
          |   Average:       31.848 MB
          Note:  These values currently only include a subset of arrays which are explicitly tracked.
          The "true" memory usage will be greater.

          Have a nice day.
------------------------------------------------------------
