------------------------------------------------------------
          Invoking FHI-aims ...

          When using FHI-aims, please cite the following reference:

            Volker Blum, Ralf Gehrke, Felix Hanke, Paula Havu,
            Ville Havu, Xinguo Ren, Karsten Reuter, and Matthias Scheffler,
            'Ab Initio Molecular Simulations with Numeric Atom-Centered Orbitals',
            Computer Physics Communications 180, 2175-2196 (2009)

          In addition, many other developments in FHI-aims are likely important for
          your particular application. If so, please cite them. A partial list of references
          is written at the end of this file. Thank you for giving credit to the authors
          of these developments.

          For general information about FHI-aims please find us at

            https://fhi-aims.org

          Online tutorials can be found at

            https://fhi-aims-club.gitlab.io/tutorials/tutorials-overview/

          For any questions about FHI-aims, please visit our slack channel at

            https://fhi-aims.slack.com

          and our main development and support site at

            https://aims-git.rz-berlin.mpg.de .

          The latter site, in particular, has a wiki to collect information, as well
          as an issue tracker to log discussions, suggest improvements, and report issues
          or bugs. https://aims-git.rz-berlin.mpg.de is also the main development site
          of the project and all new and updated code versions can be obtained there.
          Please send an email to aims-coordinators@fhi-berlin.mpg.de and we will add
          you to these sites. They are for you and everyone is welcome there.

------------------------------------------------------------



  Date     :  20250315, Time     :  164758.877
  Time zero on CPU 1             :   0.372426000000000E+00  s.
  Internal wall clock time zero  :           511289278.877  s.

  FHI-aims created a unique identifier for this run for later identification
  aims_uuid : 988C6897-1E26-4EC1-A65F-A05B61CAD750

  Build configuration of the current instance of FHI-aims
  -------------------------------------------------------
  FHI-aims version      : 240605
  Commit number         : b001b2e18
  CMake host system     : Linux-6.5.0-41-generic
  CMake version         : 3.22.1
  Fortran compiler      : /opt/intel/oneapi/mpi/2021.12/bin/mpiifort (IntelLLVM) version 2024.1.0
  Fortran compiler flags: -fc=ifx -O3 -ip -fp-model precise
  C compiler            : /opt/intel/oneapi/mpi/2021.12/bin/mpiicc (IntelLLVM) version 2024.1.0
  C compiler flags      : -cc=icx -O3 -ip -fp-model precise -std=gnu99
  C++ compiler          : /opt/intel/oneapi/mpi/2021.12/bin/mpiicpc (IntelLLVM) version 2024.1.0
  C++ compiler flags    : -cxx=icpx -O3 -ip -fp-model precise -std=c++11
  HIP compiler          :
  HIP compiler flags    :
  HIP GPU arch          :
  Using MPI
  Using ScaLAPACK
  Using LibXC
  Using i-PI
  Using RLSY
  Linking against: /opt/intel/oneapi/mkl/2024.1/lib/intel64/libmkl_intel_lp64.so
                   /opt/intel/oneapi/mkl/2024.1/lib/intel64/libmkl_sequential.so
                   /opt/intel/oneapi/mkl/2024.1/lib/intel64/libmkl_core.so
                   /opt/intel/oneapi/mkl/2024.1/lib/intel64/libmkl_blacs_intelmpi_lp64.so
                   /opt/intel/oneapi/mkl/2024.1/lib/intel64/libmkl_scalapack_lp64.so
                   /opt/intel/oneapi/mkl/2024.1/lib/intel64/libmkl_core.so

  Using       32 parallel tasks.
  Task        0 on host RSL-arvutus reporting.
  Task        1 on host RSL-arvutus reporting.
  Task        2 on host RSL-arvutus reporting.
  Task        3 on host RSL-arvutus reporting.
  Task        4 on host RSL-arvutus reporting.
  Task        5 on host RSL-arvutus reporting.
  Task        6 on host RSL-arvutus reporting.
  Task        7 on host RSL-arvutus reporting.
  Task        8 on host RSL-arvutus reporting.
  Task        9 on host RSL-arvutus reporting.
  Task       10 on host RSL-arvutus reporting.
  Task       11 on host RSL-arvutus reporting.
  Task       12 on host RSL-arvutus reporting.
  Task       13 on host RSL-arvutus reporting.
  Task       14 on host RSL-arvutus reporting.
  Task       15 on host RSL-arvutus reporting.
  Task       16 on host RSL-arvutus reporting.
  Task       17 on host RSL-arvutus reporting.
  Task       18 on host RSL-arvutus reporting.
  Task       19 on host RSL-arvutus reporting.
  Task       20 on host RSL-arvutus reporting.
  Task       21 on host RSL-arvutus reporting.
  Task       22 on host RSL-arvutus reporting.
  Task       23 on host RSL-arvutus reporting.
  Task       24 on host RSL-arvutus reporting.
  Task       25 on host RSL-arvutus reporting.
  Task       26 on host RSL-arvutus reporting.
  Task       27 on host RSL-arvutus reporting.
  Task       28 on host RSL-arvutus reporting.
  Task       29 on host RSL-arvutus reporting.
  Task       30 on host RSL-arvutus reporting.
  Task       31 on host RSL-arvutus reporting.

  Memory overcommitment is allowed on your operating system.

  Obtaining array dimensions for all initial allocations:
  
  -----------------------------------------------------------------------
  Parsing control.in (first pass over file, find array dimensions only).
  The contents of control.in will be repeated verbatim below
  unless switched off by setting 'verbatim_writeout .false.' .
  in the first line of control.in .
  -----------------------------------------------------------------------
  
    xc              pbe
    relativistic    zora scalar 1.0e-12
    k_grid          8 8 1
  
    spin            collinear
    default_initial_moment        0.0
  
    charge	  1.0
    output          Mulliken
  
  
  ################################################################################
  #
  #  FHI-aims code project
  #  VB, Fritz-Haber Institut, 2009
  #
  #  Suggested "light" defaults for Ti atom (to be pasted into control.in file)
  #  Be sure to double-check any results obtained with these settings for post-processing,
  #  e.g., with the "tight" defaults and larger basis sets.
  #
  ################################################################################
    species        Ti
  #     global species definitions
      nucleus             22
      mass                47.867
  #
      l_hartree           4
  #
      cut_pot             3.5          1.5  1.0
      basis_dep_cutoff    1e-4
  #
      radial_base         48 5.0
      radial_multiplier   1
      angular_grids       specified
        division   0.5171   50
        division   0.9824  110
        division   1.2917  194
        division   1.4940  302
  #      division   1.6934  434
  #      division   1.8425  590
  #      division   2.1901  770
  #      division   2.2896  974
  #      division   2.8244 1202
  #      outer_grid  974
        outer_grid  302
  ################################################################################
  #
  #  Definition of "minimal" basis
  #
  ################################################################################
  #     valence basis states
      valence      4  s   2.
      valence      3  p   6.
      valence      3  d   2.
  #     ion occupancy
      ion_occ      4  s   1.
      ion_occ      3  p   6.
      ion_occ      3  d   1.
  ################################################################################
  #
  #  Suggested additional basis functions. For production calculations,
  #  uncomment them one after another (the most important basis functions are
  #  listed first).
  #
  #  Constructed for dimers: 1.6 A, 1.85 A, 2.5 A, 3.25 A, 4.25 A
  #
  ################################################################################
  #  "First tier" - improvements: -396.25 meV to -19.41 meV
       hydro 4 f 8
       hydro 3 d 2.7
       ionic 4 p auto
  #     hydro 5 g 11.6
       ionic 4 s auto
  #  "Second tier" - improvements: -16.30 meV to -2.03 meV
  #     hydro 3 d 4.4
  #     hydro 6 h 16
  #     hydro 4 f 9.4
  #     hydro 4 p 4.5
  #     hydro 1 s 0.5
  #  "Third tier" - improvements: -6.28 meV to -0.37 meV
  #     hydro 4 d 6.4
  #     hydro 4 f 10
  #     hydro 5 g 12
  #     hydro 2 p 1.7
  #     hydro 6 h 16.4
  #     hydro 4 s 3.8
  #  Further basis functions: -0.45 meV and smaller improvements
  #     hydro 3 d 8.8
  #     hydro 5 p 18
  #     hydro 4 f 22.4
  #     hydro 5 f 7.2  # -0.16 meV
  #     hydro 3 d 2.1  # -0.11 meV
  #     hydro 5 g 7.4  # -0.09 meV
  
  
  ################################################################################
  #
  #  FHI-aims code project
  #  VB, Fritz-Haber Institut, 2009
  #
  #  Suggested "light" defaults for O atom (to be pasted into control.in file)
  #  Be sure to double-check any results obtained with these settings for post-processing,
  #  e.g., with the "tight" defaults and larger basis sets.
  #
  ################################################################################
    species        O
  #     global species definitions
      nucleus             8
      mass                15.9994
  #
      l_hartree           4
  #
      cut_pot             3.5  1.5  1.0
      basis_dep_cutoff    1e-4
  #
      radial_base         36 5.0
      radial_multiplier   1
       angular_grids specified
        division   0.2659   50
        division   0.4451  110
        division   0.6052  194
        division   0.7543  302
  #      division   0.8014  434
  #      division   0.8507  590
  #      division   0.8762  770
  #      division   0.9023  974
  #      division   1.2339 1202
  #      outer_grid 974
        outer_grid 302
  ################################################################################
  #
  #  Definition of "minimal" basis
  #
  ################################################################################
  #     valence basis states
      valence      2  s   2.
      valence      2  p   4.
  #     ion occupancy
      ion_occ      2  s   1.
      ion_occ      2  p   3.
  ################################################################################
  #
  #  Suggested additional basis functions. For production calculations,
  #  uncomment them one after another (the most important basis functions are
  #  listed first).
  #
  #  Constructed for dimers: 1.0 A, 1.208 A, 1.5 A, 2.0 A, 3.0 A
  #
  ################################################################################
  #  "First tier" - improvements: -699.05 meV to -159.38 meV
       hydro 2 p 1.8
       hydro 3 d 7.6
       hydro 3 s 6.4
  #  "Second tier" - improvements: -49.91 meV to -5.39 meV
  #     hydro 4 f 11.6
  #     hydro 3 p 6.2
  #     hydro 3 d 5.6
  #     hydro 5 g 17.6
  #     hydro 1 s 0.75
  #  "Third tier" - improvements: -2.83 meV to -0.50 meV
  #     ionic 2 p auto
  #     hydro 4 f 10.8
  #     hydro 4 d 4.7
  #     hydro 2 s 6.8
  #  "Fourth tier" - improvements: -0.40 meV to -0.12 meV
  #     hydro 3 p 5
  #     hydro 3 s 3.3
  #     hydro 5 g 15.6
  #     hydro 4 f 17.6
  #     hydro 4 d 14
  # Further basis functions - -0.08 meV and below
  #     hydro 3 s 2.1
  #     hydro 4 d 11.6
  #     hydro 3 p 16
  #     hydro 2 s 17.2
  ################################################################################
  #
  #  FHI-aims code project
  #  VB, Fritz-Haber Institut, 2009
  #
  #  Suggested "light" defaults for F atom (to be pasted into control.in file)
  #  Be sure to double-check any results obtained with these settings for post-processing,
  #  e.g., with the "tight" defaults and larger basis sets.
  #
  ################################################################################
    species        F
  #     global species definitions
      nucleus             9
      mass                18.9984032
  #
      l_hartree           4
  #
      cut_pot             3.5  1.5  1.0
      basis_dep_cutoff    1e-4
  #
      radial_base         37 5.0
      radial_multiplier   1
      angular_grids specified
        division   0.4014  110
        division   0.5291  194
        division   0.6019  302
  #      division   0.6814  434
  #      division   0.7989  590
  #      division   0.8965  770
  #      division   1.3427  974
  #      outer_grid   974
        outer_grid   302
  ################################################################################
  #
  #  Definition of "minimal" basis
  #
  ################################################################################
  #     valence basis states
      valence      2  s   2.
      valence      2  p   5.
  #     ion occupancy
      ion_occ      2  s   1.
      ion_occ      2  p   4.
  ################################################################################
  #
  #  Suggested additional basis functions. For production calculations,
  #  uncomment them one after another (the most important basis functions are
  #  listed first).
  #
  #  Constructed for dimers: 1.2 A, 1.418 A, 1.75 A, 2.25 A, 3.25 A
  #
  ################################################################################
  #  "First tier" - improvements: -149.44 meV to -45.88 meV
       hydro 2 p 1.7
       hydro 3 d 7.4
       hydro 3 s 6.8
  #  "Second tier" - improvements: -12.96 meV to -1.56 meV
  #     hydro 4 f 11.2
  #     ionic 2 p auto
  #     hydro 1 s 0.75
  #     hydro 4 d 8.8
  #     hydro 5 g 16.8
  #  "Third tier" - improvements: -0.58 meV to -0.05 meV
  #     hydro 3 p 6.2
  #     hydro 3 s 3.2
  #     hydro 4 f 9.6
  #     hydro 3 s 19.6
  #     hydro 4 d 8.6
  #     hydro 5 g 14.4
  # Further basis functions: -0.05 meV and below
  #     hydro 3 p 4.2
  
  -----------------------------------------------------------------------
  Completed first pass over input file control.in .
  -----------------------------------------------------------------------
  
  
  -----------------------------------------------------------------------
  Parsing geometry.in (first pass over file, find array dimensions only).
  The contents of geometry.in will be repeated verbatim below
  unless switched off by setting 'verbatim_writeout .false.' .
  in the first line of geometry.in .
  -----------------------------------------------------------------------
  
  lattice_vector 6.566127 0.000000 0.000000
  lattice_vector 0.000000 5.945766 0.000000
  lattice_vector 0.000000 0.000000 22.332457
  
  atom_frac 0.999994 0.000000 0.368597 O
  atom_frac 0.305556 0.250000 0.425767 O
  atom_frac 0.499997 0.000000 0.425768 Ti
  atom_frac 0.999997 0.250000 0.425768 Ti
  atom_frac 0.694439 0.250000 0.425769 O
  atom_frac 0.000001 0.000000 0.482939 O
  atom_frac 0.499991 0.000000 0.515613 O
  atom_frac 0.805553 0.250000 0.572783 O
  atom_frac 0.999995 0.000000 0.572784 Ti
  atom_frac 0.499995 0.250000 0.572784 Ti
  atom_frac 0.194436 0.250000 0.572786 O
  atom_frac 0.499998 0.000000 0.629955 O
  atom_frac 0.999994 0.500000 0.368597 O
  atom_frac 0.305556 0.750000 0.425767 O
  atom_frac 0.499997 0.500000 0.425768 Ti
  atom_frac 0.999997 0.750000 0.425768 Ti
  atom_frac 0.694439 0.750000 0.425769 O
  atom_frac 0.000001 0.500000 0.482939 O
  atom_frac 0.499991 0.500000 0.515613 O
  atom_frac 0.805553 0.750000 0.572783 O
  atom_frac 0.999995 0.500000 0.572784 Ti
  atom_frac 0.499995 0.750000 0.572784 Ti
  atom_frac 0.194436 0.750000 0.572786 O
  atom_frac 0.499998 0.500000 0.629955 F
  
  -----------------------------------------------------------------------
  Completed first pass over input file geometry.in .
  -----------------------------------------------------------------------
  

  Basic array size parameters:
  | Number of species                 :        3
  | Number of atoms                   :       24
  | Number of lattice vectors         :        3
  | Max. basis fn. angular momentum   :        3
  | Max. atomic/ionic basis occupied n:        4
  | Max. number of basis fn. types    :        3
  | Max. radial fns per species/type  :        7
  | Max. logarithmic grid size        :     1383
  | Max. radial integration grid size :       48
  | Max. angular integration grid size:      302
  | Max. angular grid division number :        8
  | Radial grid for Hartree potential :     1383
  | Number of spin channels           :        2

------------------------------------------------------------
          Reading file control.in.
------------------------------------------------------------
  XC: Using PBE gradient-corrected functionals.
  Scalar relativistic treatment of kinetic energy: ZORA.
  Threshold value for ZORA:   0.100000E-11
  Found k-point grid:         8         8         1
  Spin treatment: Spin density functional theory - collinear spins.
  Initial spin moment per atom:   0.0000
  Charged system requested: Charge =   0.100000E+01.
  Mulliken charge analysis will be performed and summarised to the main output.
  Full Mulliken charge analysis will be written to file 'Mulliken.out'.
 
  Reading configuration options for species Ti                  .
  | Found nuclear charge :  22.0000
  | Found atomic mass :    47.8670000000000      amu
  | Found l_max for Hartree potential  :   4
  | Found cutoff potl. onset [A], width [A], scale factor :    3.50000    1.50000    1.00000
  | Threshold for basis-dependent cutoff potential is   0.100000E-03
  | Found data for basic radial integration grid :    48 points, outermost radius =    5.000 A
  | Found multiplier for basic radial grid :   1
  | Found angular grid specification: user-specified.
  | Specified grid contains     5 separate shells.
  | Check grid settings after all constraints further below.
  | Found free-atom valence shell :  4 s   2.000
  | Found free-atom valence shell :  3 p   6.000
  | Found free-atom valence shell :  3 d   2.000
  | Found free-ion valence shell :  4 s   1.000
  | Found free-ion valence shell :  3 p   6.000
  | Found free-ion valence shell :  3 d   1.000
  | Found hydrogenic basis function :  4 f   8.000
  | Found hydrogenic basis function :  3 d   2.700
  | Found ionic basis function :  4 p , default cutoff radius.
  | Found ionic basis function :  4 s , default cutoff radius.
 | Encountered keyword species, ending the description of species Ti                  .
  Species Ti                  : Missing cutoff potential type.
  Defaulting to exp(1/x)/(1-x)^2 type cutoff potential.
  Species Ti: No 'logarithmic' tag. Using default grid for free atom:
  | Default logarithmic grid data [bohr] : 0.1000E-03 0.1000E+03 0.1012E+01
  | Will include ionic basis functions of  2.0-fold positive Ti                   ion.
  Species Ti: On-site basis accuracy parameter (for Gram-Schmidt orthonormalisation) not specified.
  Using default value basis_acc =  0.1000000E-03.
  Species Ti                  : Using default innermost maximum threshold i_radial=  2 for radial functions.
  Species Ti                  : Default cutoff onset for free atom density etc. : 0.35000000E+01 AA.
  Species Ti                  : Basic radial grid will be enhanced according to radial_multiplier =   1, to contain    48 grid points.
 
  Reading configuration options for species O                   .
  | Found nuclear charge :   8.0000
  | Found atomic mass :    15.9994000000000      amu
  | Found l_max for Hartree potential  :   4
  | Found cutoff potl. onset [A], width [A], scale factor :    3.50000    1.50000    1.00000
  | Threshold for basis-dependent cutoff potential is   0.100000E-03
  | Found data for basic radial integration grid :    36 points, outermost radius =    5.000 A
  | Found multiplier for basic radial grid :   1
  | Found angular grid specification: user-specified.
  | Specified grid contains     5 separate shells.
  | Check grid settings after all constraints further below.
  | Found free-atom valence shell :  2 s   2.000
  | Found free-atom valence shell :  2 p   4.000
  | Found free-ion valence shell :  2 s   1.000
  | Found free-ion valence shell :  2 p   3.000
  | Found hydrogenic basis function :  2 p   1.800
  | Found hydrogenic basis function :  3 d   7.600
  | Found hydrogenic basis function :  3 s   6.400
 | Encountered keyword species, ending the description of species O                   .
  Species O                   : Missing cutoff potential type.
  Defaulting to exp(1/x)/(1-x)^2 type cutoff potential.
  Species O : No 'logarithmic' tag. Using default grid for free atom:
  | Default logarithmic grid data [bohr] : 0.1000E-03 0.1000E+03 0.1012E+01
  Species O : On-site basis accuracy parameter (for Gram-Schmidt orthonormalisation) not specified.
  Using default value basis_acc =  0.1000000E-03.
  Species O                   : Using default innermost maximum threshold i_radial=  2 for radial functions.
  Species O                   : Default cutoff onset for free atom density etc. : 0.35000000E+01 AA.
  Species O                   : Basic radial grid will be enhanced according to radial_multiplier =   1, to contain    36 grid points.
 
  Reading configuration options for species F                   .
  | Found nuclear charge :   9.0000
  | Found atomic mass :    18.9984032000000      amu
  | Found l_max for Hartree potential  :   4
  | Found cutoff potl. onset [A], width [A], scale factor :    3.50000    1.50000    1.00000
  | Threshold for basis-dependent cutoff potential is   0.100000E-03
  | Found data for basic radial integration grid :    37 points, outermost radius =    5.000 A
  | Found multiplier for basic radial grid :   1
  | Found angular grid specification: user-specified.
  | Specified grid contains     4 separate shells.
  | Check grid settings after all constraints further below.
  | Found free-atom valence shell :  2 s   2.000
  | Found free-atom valence shell :  2 p   5.000
  | Found free-ion valence shell :  2 s   1.000
  | Found free-ion valence shell :  2 p   4.000
  | Found hydrogenic basis function :  2 p   1.700
  | Found hydrogenic basis function :  3 d   7.400
  | Found hydrogenic basis function :  3 s   6.800
  Species F                   : Missing cutoff potential type.
  Defaulting to exp(1/x)/(1-x)^2 type cutoff potential.
  Species F : No 'logarithmic' tag. Using default grid for free atom:
  | Default logarithmic grid data [bohr] : 0.1000E-03 0.1000E+03 0.1012E+01
  Species F : On-site basis accuracy parameter (for Gram-Schmidt orthonormalisation) not specified.
  Using default value basis_acc =  0.1000000E-03.
  Species F                   : Using default innermost maximum threshold i_radial=  2 for radial functions.
  Species F                   : Default cutoff onset for free atom density etc. : 0.35000000E+01 AA.
  Species F                   : Basic radial grid will be enhanced according to radial_multiplier =   1, to contain    37 grid points.
 
  Finished reading input file 'control.in'.
 
------------------------------------------------------------


------------------------------------------------------------
          Reading geometry description geometry.in.
------------------------------------------------------------
  | The smallest distance between any two atoms is         1.95947270 AA.
  | The first atom of this pair is atom number                      2 .
  | The second atom of this pair is atom number                     3 .
  | Wigner-Seitz cell of the first atom image           0     0     0 .
  | (The Wigner-Seitz cell of the second atom is 0 0 0  by definition.)

  Symmetry information by spglib:
  | Precision set to  0.1E-04
  | Number of Operations  : 2
  | Space group           : 6
  | International         : Pm      /op
  | Schoenflies           : Cs^1
  Input structure read successfully.
  The structure contains       24 atoms,  and a total of        304.000 electrons.

  Input geometry:
  | Unit cell:
  |        6.56612700        0.00000000        0.00000000
  |        0.00000000        5.94576600        0.00000000
  |        0.00000000        0.00000000       22.33245700
  | Atomic structure:
  |       Atom                x [A]            y [A]            z [A]
  |    1: Species O             6.56608760        0.00000000        8.23167665
  |    2: Species O             2.00631950        1.48644150        9.50842322
  |    3: Species Ti            3.28304380        0.00000000        9.50844555
  |    4: Species Ti            6.56610730        1.48644150        9.50844555
  |    5: Species O             4.55977467        1.48644150        9.50846788
  |    6: Species O             0.00000657        0.00000000       10.78521445
  |    7: Species O             3.28300440        0.00000000       11.51490515
  |    8: Species O             5.28936330        1.48644150       12.79165172
  |    9: Species Ti            6.56609417        0.00000000       12.79167405
  |   10: Species Ti            3.28303067        1.48644150       12.79167405
  |   11: Species O             1.27669147        1.48644150       12.79171872
  |   12: Species O             3.28305037        0.00000000       14.06844295
  |   13: Species O             6.56608760        2.97288300        8.23167665
  |   14: Species O             2.00631950        4.45932450        9.50842322
  |   15: Species Ti            3.28304380        2.97288300        9.50844555
  |   16: Species Ti            6.56610730        4.45932450        9.50844555
  |   17: Species O             4.55977467        4.45932450        9.50846788
  |   18: Species O             0.00000657        2.97288300       10.78521445
  |   19: Species O             3.28300440        2.97288300       11.51490515
  |   20: Species O             5.28936330        4.45932450       12.79165172
  |   21: Species Ti            6.56609417        2.97288300       12.79167405
  |   22: Species Ti            3.28303067        4.45932450       12.79167405
  |   23: Species O             1.27669147        4.45932450       12.79171872
  |   24: Species F             3.28305037        2.97288300       14.06844295

  Lattice parameters for 3D lattice (in Angstroms) :     6.566127    5.945766   22.332457
  Angle(s) between unit vectors (in degrees)       :    90.000000   90.000000   90.000000


  Quantities derived from the lattice vectors (in Angstrom^-1):
  | Reciprocal lattice vector 1:  0.956909  0.000000  0.000000
  | Reciprocal lattice vector 2:  0.000000  1.056750  0.000000
  | Reciprocal lattice vector 3:  0.000000  0.000000  0.281348
  | Unit cell volume                               :   0.871874E+03  Angstrom^3

  Fractional coordinates:
                         L1                L2                L3
       atom_frac         0.99999400        0.00000000        0.36859700  O
       atom_frac         0.30555600        0.25000000        0.42576700  O
       atom_frac         0.49999700        0.00000000        0.42576800  Ti
       atom_frac         0.99999700        0.25000000        0.42576800  Ti
       atom_frac         0.69443900        0.25000000        0.42576900  O
       atom_frac         0.00000100        0.00000000        0.48293900  O
       atom_frac         0.49999100        0.00000000        0.51561300  O
       atom_frac         0.80555300        0.25000000        0.57278300  O
       atom_frac         0.99999500        0.00000000        0.57278400  Ti
       atom_frac         0.49999500        0.25000000        0.57278400  Ti
       atom_frac         0.19443600        0.25000000        0.57278600  O
       atom_frac         0.49999800        0.00000000        0.62995500  O
       atom_frac         0.99999400        0.50000000        0.36859700  O
       atom_frac         0.30555600        0.75000000        0.42576700  O
       atom_frac         0.49999700        0.50000000        0.42576800  Ti
       atom_frac         0.99999700        0.75000000        0.42576800  Ti
       atom_frac         0.69443900        0.75000000        0.42576900  O
       atom_frac         0.00000100        0.50000000        0.48293900  O
       atom_frac         0.49999100        0.50000000        0.51561300  O
       atom_frac         0.80555300        0.75000000        0.57278300  O
       atom_frac         0.99999500        0.50000000        0.57278400  Ti
       atom_frac         0.49999500        0.75000000        0.57278400  Ti
       atom_frac         0.19443600        0.75000000        0.57278600  O
       atom_frac         0.49999800        0.50000000        0.62995500  F

  Initial moments and charges:
  |  Atom   Moment         Charge        Species
  |     1   0.000000E+00   0.000000E+00   O
  |     2   0.000000E+00   0.000000E+00   O
  |     3   0.000000E+00   0.000000E+00   Ti
  |     4   0.000000E+00   0.000000E+00   Ti
  |     5   0.000000E+00   0.000000E+00   O
  |     6   0.000000E+00   0.000000E+00   O
  |     7   0.000000E+00   0.000000E+00   O
  |     8   0.000000E+00   0.000000E+00   O
  |     9   0.000000E+00   0.000000E+00   Ti
  |    10   0.000000E+00   0.000000E+00   Ti
  |    11   0.000000E+00   0.000000E+00   O
  |    12   0.000000E+00   0.000000E+00   O
  |    13   0.000000E+00   0.000000E+00   O
  |    14   0.000000E+00   0.000000E+00   O
  |    15   0.000000E+00   0.000000E+00   Ti
  |    16   0.000000E+00   0.000000E+00   Ti
  |    17   0.000000E+00   0.000000E+00   O
  |    18   0.000000E+00   0.000000E+00   O
  |    19   0.000000E+00   0.000000E+00   O
  |    20   0.000000E+00   0.000000E+00   O
  |    21   0.000000E+00   0.000000E+00   Ti
  |    22   0.000000E+00   0.000000E+00   Ti
  |    23   0.000000E+00   0.000000E+00   O
  |    24   0.000000E+00   0.000000E+00   F

  Slab Identifier: This is Z-oriented slab and maximum thickness of the vacuum is: 16.496 Angstrom.
 
  Finished reading input file 'geometry.in'.
 

 
  Consistency checks for stacksize environment parameter are next.
 
  | Maximum stacksize for task 0: unlimited
  | Maximum stacksize for task 1: unlimited
  | Maximum stacksize for task 2: unlimited
  | Maximum stacksize for task 3: unlimited
  | Maximum stacksize for task 4: unlimited
  | Maximum stacksize for task 5: unlimited
  | Maximum stacksize for task 6: unlimited
  | Maximum stacksize for task 7: unlimited
  | Maximum stacksize for task 8: unlimited
  | Maximum stacksize for task 9: unlimited
  | Maximum stacksize for task 10: unlimited
  | Maximum stacksize for task 11: unlimited
  | Maximum stacksize for task 12: unlimited
  | Maximum stacksize for task 13: unlimited
  | Maximum stacksize for task 14: unlimited
  | Maximum stacksize for task 15: unlimited
  | Maximum stacksize for task 16: unlimited
  | Maximum stacksize for task 17: unlimited
  | Maximum stacksize for task 18: unlimited
  | Maximum stacksize for task 19: unlimited
  | Maximum stacksize for task 20: unlimited
  | Maximum stacksize for task 21: unlimited
  | Maximum stacksize for task 22: unlimited
  | Maximum stacksize for task 23: unlimited
  | Maximum stacksize for task 24: unlimited
  | Maximum stacksize for task 25: unlimited
  | Maximum stacksize for task 26: unlimited
  | Maximum stacksize for task 27: unlimited
  | Maximum stacksize for task 28: unlimited
  | Maximum stacksize for task 29: unlimited
  | Maximum stacksize for task 30: unlimited
  | Maximum stacksize for task 31: unlimited
  | Current stacksize for task 0: unlimited
  | Current stacksize for task 1: unlimited
  | Current stacksize for task 2: unlimited
  | Current stacksize for task 3: unlimited
  | Current stacksize for task 4: unlimited
  | Current stacksize for task 5: unlimited
  | Current stacksize for task 6: unlimited
  | Current stacksize for task 7: unlimited
  | Current stacksize for task 8: unlimited
  | Current stacksize for task 9: unlimited
  | Current stacksize for task 10: unlimited
  | Current stacksize for task 11: unlimited
  | Current stacksize for task 12: unlimited
  | Current stacksize for task 13: unlimited
  | Current stacksize for task 14: unlimited
  | Current stacksize for task 15: unlimited
  | Current stacksize for task 16: unlimited
  | Current stacksize for task 17: unlimited
  | Current stacksize for task 18: unlimited
  | Current stacksize for task 19: unlimited
  | Current stacksize for task 20: unlimited
  | Current stacksize for task 21: unlimited
  | Current stacksize for task 22: unlimited
  | Current stacksize for task 23: unlimited
  | Current stacksize for task 24: unlimited
  | Current stacksize for task 25: unlimited
  | Current stacksize for task 26: unlimited
  | Current stacksize for task 27: unlimited
  | Current stacksize for task 28: unlimited
  | Current stacksize for task 29: unlimited
  | Current stacksize for task 30: unlimited
  | Current stacksize for task 31: unlimited
 
  Consistency checks for the contents of control.in are next.
 
  MPI_IN_PLACE appears to work with this MPI implementation.
  | Keeping use_mpi_in_place .true. (see manual).
  Target number of points in a grid batch is not set. Defaulting to  100
  Method for grid partitioning is not set. Defaulting to parallel hash+maxmin partitioning.
  Batch size limit is not set. Defaulting to    200
  By default, will store active basis functions for each batch.
  If in need of memory, prune_basis_once .false. can be used to disable this option.
  communication_type for Hartree potential was not specified.
  Defaulting to calc_hartree .
  Defaulting to Pulay charge density mixer.
  Pulay mixer: Number of relevant iterations not set.
  Defaulting to    8 iterations.
  Pulay mixer: Number of initial linear mixing iterations not set.
  Defaulting to    0 iterations.
  Work space size for distributed Hartree potential not set.
  Defaulting to   0.200000E+03 MB.
  Mixing parameter for charge density mixing has not been set.
  Using default: charge_mix_param =     0.0500.
  The mixing parameter will be adjusted in iteration number     2 of each s.c.f. cycle (i.e., each geometry step).
  Mixing parameter for spin density mixing has not been set.
  Using charge_mix_param as default:     0.0500.
  Algorithm-dependent basis array size parameters:
  | n_max_pulay                         :        8
  Maximum number of self-consistency iterations not provided.
  Presetting  1000 iterations.
  Presetting      1001 iterations before the initial mixing cycle
  is restarted anyway using the sc_init_iter criterion / keyword.
  Presetting a factor      1.000 between actual scf density residual
  and density convergence criterion sc_accuracy_rho below which sc_init_iter
  takes no effect.
 * No s.c.f. convergence criteria (sc_accuracy_*) were provided in control.in.
 * The run will proceed with a reasonable default guess, but please check whether.
 * the s.c.f. cycles seem to take too much or too little time.
  Calculation of forces was not defined in control.in. No forces will be calculated.
  Geometry relaxation not requested: no relaxation will be performed.
 * Notice: The s.c.f. convergence criterion sc_accuracy_rho was not provided.
 * We used to stop in this case, and ask the user to provide reasonable
 * scf convergence criteria. However, this led some users to employ criteria
 * that led to extremely long run times, e.g., for simple relaxation.
 * We now preset a default value for sc_accuracy_rho if it is not set.
 * You may still wish to check if this setting is too tight or too loose for your needs.
 * Based on n_atoms and forces and force-correction status, FHI-aims chose sc_accuracy_rho =  0.200000E-05 .
  No accuracy limit for integral partition fn. given. Defaulting to  0.1000E-14.
  No threshold value for u(r) in integrations given. Defaulting to  0.1000E-05.
  No occupation type (smearing scheme) given. Defaulting to Gaussian broadening, width =  0.1000E-01 eV.
  The width will be adjusted in iteration number     2 of each s.c.f. cycle (i.e., each geometry step).
  No accuracy for occupation numbers given. Defaulting to  0.1000E-12.
  No threshold value for occupation numbers given. Defaulting to  0.0000E+00.
  No accuracy for fermi level given. Defaulting to  0.1000E-19.
  Maximum # of iterations to find E_F not set. Defaulting to  200.
  Preferred method for the eigenvalue solver ('KS_method') not specified in 'control.in'.
  Defaulting to serial version, LAPACK (via ELSI), since more k-points than CPUs available.
  Will not use alltoall communication since running on < 1024 CPUs.
  Threshold for basis singularities not set.
  Default threshold for basis singularities:  0.1000E-04
  partition_type (choice of integration weights) for integrals was not specified.
  | Using a version of the partition function of Stratmann and coworkers ('stratmann_sparse').
  | At each grid point, the set of atoms used to build the partition table is smoothly restricted to
  | only those atoms whose free-atom density would be non-zero at that grid point.
  Partitioning for Hartree potential was not defined. Using partition_type for integrals.
  | Adjusted default value of keyword multip_moments_threshold to:       0.10000000E-11
  | This value may affect high angular momentum components of the Hartree potential in periodic systems.
  Angular momentum expansion for Kerker preconditioner not set explicitly.
  | Using default value of   0
  No explicit requirement for turning off preconditioner.
  | By default, it will be turned off when the charge convergence reaches
  | sc_accuracy_rho  =   0.200000E-05
  No special mixing parameter while Kerker preconditioner is on.
  Using default: charge_mix_param =     0.0500.
  No q(lm)/r^(l+1) cutoff set for long-range Hartree potential.
  | Using default value of  0.100000E-09 .
  | Verify using the multipole_threshold keyword.
  Defaulting to new monopole extrapolation.
  Density update method: automatic selection selected.
  Using density matrix based charge density update.
  Using density matrix based charge density update.
  Using packed matrix style: index .
  Defaulting to use time-reversal symmetry for k-point grid.
  Charge integration errors on the 3D integration grid will be compensated
  by explicit normalization and distribution of residual charges.
  Use the "compensate_multipole_errors" flag to change this behaviour.
  Set 'collect_eigenvectors' to be '.true.' for all serial calculations. This is mandatory.
  Set 'collect_eigenvectors' to be '.true.' for KS_method lapack_fast and serial.
  Found potential conflicts with setting 'use_local_index' for this calculation. Will not set it.
 
  Consistency checks for the contents of geometry.in are next.
 

  Range separation radius for Ewald summation (hartree_convergence_parameter):      4.81466675 bohr.
 * Warning: Initial charge and total charge of the system are inconsistent.
 * Selected charge in control.in:     1.0000* Sum of initial charges in geometry.in:     0.0000
  Number of empty states per atom not set in control.in - providing a guess from actual geometry.
  | Total number of empty states used during s.c.f. cycle:       92
  If you use a very high smearing, use empty_states (per atom!) in control.in to increase this value.

  Structure-dependent array size parameters: 
  | Number of distinct atom types in initial rho :        3
  | Maximum number of distinct radial functions  :       23
  | Maximum number of basis functions            :      472
  | Number of Kohn-Sham states (occupied + empty):      244
------------------------------------------------------------
  After read_input_data [GB]:   1040.62

  Performing system and environment tests:
  *** Environment variable OMP_NUM_THREADS is not set
  *** For performance reasons you might want to set it to 1
  | Checking for ScaLAPACK...
  | Testing pdtran()...
  | All pdtran() tests passed.
  After prepare_system [GB]:   1040.47

------------------------------------------------------------
          Preparing all fixed parts of the calculation.
------------------------------------------------------------
  Determining machine precision:
    2.225073858507201E-308
  Setting up grids for atomic and cluster calculations.

  Creating wave function, potential, and density for free atoms.
  Runtime choices for atomic solver:
  | atomic solver xc        : PBE
  | compute density gradient: 1
  | compute kinetic density : F

  Species: Ti

  List of occupied orbitals and eigenvalues:
    n    l              occ      energy [Ha]    energy [eV]
    1    0           2.0000      -179.959082     -4896.9358
    2    0           2.0000       -19.727662      -536.8170
    3    0           2.0000        -2.283029       -62.1244
    4    0           2.0000        -0.148384        -4.0377
    2    1           6.0000       -16.317278      -444.0157
    3    1           6.0000        -1.409348       -38.3503
    3    2           2.0000        -0.139340        -3.7916


  Species: O

  List of occupied orbitals and eigenvalues:
    n    l              occ      energy [Ha]    energy [eV]
    1    0           2.0000       -18.926989      -515.0296
    2    0           2.0000        -0.880247       -23.9527
    2    1           4.0000        -0.331514        -9.0210


  Species: F

  List of occupied orbitals and eigenvalues:
    n    l              occ      energy [Ha]    energy [eV]
    1    0           2.0000       -24.399611      -663.9472
    2    0           2.0000        -1.098702       -29.8972
    2    1           5.0000        -0.408210       -11.1080

  Spin-polarized or charged system:
  Charge density initialized according to selected moments and charges.

  Creating spin-polarized density from free atoms.

  Species: O
  Charge:   0.000000
  Moment:   0.000000

  List of occupied orbitals and eigenvalues:
    n    l      energy [Ha]    energy [eV]    occupation
  Spin-up
    1    0       -18.926989      -515.0296     1.00000000
    2    0        -0.880247       -23.9527     1.00000000
    2    1        -0.331514        -9.0210     2.00000000
  Spin-down
    1    0       -18.926989      -515.0296     1.00000000
    2    0        -0.880247       -23.9527     1.00000000
    2    1        -0.331514        -9.0210     2.00000000


  Species: Ti
  Charge:   0.000000
  Moment:   0.000000

  List of occupied orbitals and eigenvalues:
    n    l      energy [Ha]    energy [eV]    occupation
  Spin-up
    1    0      -179.959082     -4896.9358     1.00000000
    2    0       -19.727662      -536.8170     1.00000000
    3    0        -2.283029       -62.1244     1.00000000
    4    0        -0.148384        -4.0377     1.00000000
    2    1       -16.317278      -444.0157     3.00000000
    3    1        -1.409348       -38.3503     3.00000000
    3    2        -0.139340        -3.7916     1.00000000
  Spin-down
    1    0      -179.959082     -4896.9358     1.00000000
    2    0       -19.727662      -536.8170     1.00000000
    3    0        -2.283029       -62.1244     1.00000000
    4    0        -0.148384        -4.0377     1.00000000
    2    1       -16.317278      -444.0157     3.00000000
    3    1        -1.409348       -38.3503     3.00000000
    3    2        -0.139340        -3.7916     1.00000000


  Species: F
  Charge:   0.000000
  Moment:   0.000000

  List of occupied orbitals and eigenvalues:
    n    l      energy [Ha]    energy [eV]    occupation
  Spin-up
    1    0       -24.399611      -663.9472     1.00000000
    2    0        -1.098702       -29.8972     1.00000000
    2    1        -0.408210       -11.1080     2.50000000
  Spin-down
    1    0       -24.399611      -663.9472     1.00000000
    2    0        -1.098702       -29.8972     1.00000000
    2    1        -0.408210       -11.1080     2.50000000


  Adding cutoff potential to free-atom effective potential.
  Creating fixed part of basis set: Ionic, confined, hydrogenic.
 
  Ti                   ion:

  List of free ionic orbitals and eigenvalues:
    n    l      energy [Ha]    energy [eV]
    1    0      -180.819616     -4920.3521
    2    0       -20.608761      -560.7929
    3    0        -3.115729       -84.7833
    4    0        -0.697188       -18.9715
    2    1       -17.196209      -467.9327
    3    1        -2.231296       -60.7167
    3    2        -0.911363       -24.7995


  List of ionic basis orbitals and eigenvalues:
    n    l      energy [Ha]    energy [eV]    outer radius [A]
    4    1        -0.517739       -14.0884       4.592117
    4    0        -0.696824       -18.9615       4.536321

 
  Ti                   hydrogenic:
 
  List of hydrogenic basis orbitals: 
    n    l      effective z      eigenvalue [eV]  inner max. [A]     outer max. [A]     outer radius [A]   
    4    3         8.000000       -54.4222           1.059019           1.059019           4.267343
    3    2         2.700000       -10.7798           1.726925           1.726925           4.592117
 
 
  O                    hydrogenic:
 
  List of hydrogenic basis orbitals: 
    n    l      effective z      eigenvalue [eV]  inner max. [A]     outer max. [A]     outer radius [A]   
    2    1         1.800000       -10.9749           1.164242           1.164242           4.578029
    3    2         7.600000       -87.3180           0.624125           0.624125           3.251020
    3    0         6.400000       -61.9207           0.061167           1.081902           4.001998
 
 
  F                    hydrogenic:
 
  List of hydrogenic basis orbitals: 
    n    l      effective z      eigenvalue [eV]  inner max. [A]     outer max. [A]     outer radius [A]   
    2    1         1.700000        -9.7616           1.243167           1.243167           4.598524
    3    2         7.400000       -82.7828           0.642437           0.642437           3.305741
    3    0         6.800000       -69.9026           0.057798           1.022307           3.781556
 
  Creating atomic-like basis functions for current effective potential.

  Species Ti                  :

  List of atomic basis orbitals and eigenvalues:
    n    l      energy [Ha]    energy [eV]    outer radius [A]
    1    0      -179.959082     -4896.9358       0.490254
    2    0       -19.727662      -536.8170       1.491292
    3    0        -2.283029       -62.1244       4.014314
    4    0        -0.148384        -4.0377       4.592117
    2    1       -16.317278      -444.0157       1.585290
    3    1        -1.409348       -38.3503       4.267343
    3    2        -0.139340        -3.7916       4.536321


  Species O                   :

  List of atomic basis orbitals and eigenvalues:
    n    l      energy [Ha]    energy [eV]    outer radius [A]
    1    0       -18.926989      -515.0296       1.415765
    2    0        -0.880247       -23.9527       4.413171
    2    1        -0.331514        -9.0210       4.522403


  Species F                   :

  List of atomic basis orbitals and eigenvalues:
    n    l      energy [Ha]    energy [eV]    outer radius [A]
    1    0       -24.399611      -663.9472       1.258458
    2    0        -1.098702       -29.8972       4.325857
    2    1        -0.408210       -11.1080       4.487453

  Assembling full basis from fixed parts.
  | Species Ti :   atomic orbital   1 s accepted.
  | Species Ti :   atomic orbital   2 s accepted.
  | Species Ti :   atomic orbital   3 s accepted.
  | Species Ti :    ionic orbital   4 s accepted.
  | Species Ti :   atomic orbital   4 s accepted.
  | Species Ti :   atomic orbital   2 p accepted.
  | Species Ti :   atomic orbital   3 p accepted.
  | Species Ti :    ionic orbital   4 p accepted.
  | Species Ti :   atomic orbital   3 d accepted.
  | Species Ti :    hydro orbital   3 d accepted.
  | Species Ti :    hydro orbital   4 f accepted.
  | Species O :   atomic orbital   1 s accepted.
  | Species O :    hydro orbital   3 s accepted.
  | Species O :   atomic orbital   2 s accepted.
  | Species O :   atomic orbital   2 p accepted.
  | Species O :    hydro orbital   2 p accepted.
  | Species O :    hydro orbital   3 d accepted.
  | Species F :   atomic orbital   1 s accepted.
  | Species F :    hydro orbital   3 s accepted.
  | Species F :   atomic orbital   2 s accepted.
  | Species F :   atomic orbital   2 p accepted.
  | Species F :    hydro orbital   2 p accepted.
  | Species F :    hydro orbital   3 d accepted.
 
  Basis size parameters after reduction:
  | Total number of radial functions:       23
  | Total number of basis functions :      472
 
  Per-task memory consumption for arrays in subroutine allocate_ext:
  |           6.120712MB.
  Testing on-site integration grid accuracy.
  |  Species  Function  <phi|h_atom|phi> (log., in eV)  <phi|h_atom|phi> (rad., in eV)
           1        1              -4896.9357674450              -4896.9322838106
           1        2               -536.8170048508               -536.8169722776
           1        3                -62.1243896260                -62.1243889401
           1        4                 -3.2653235630                 -3.2692838824
           1        5                  6.7987747276                  6.5460721871 ***
           1        6               -444.0157161949               -444.0157165643
           1        7                -38.3503235548                -38.3503234985
           1        8                  0.2923930877                  0.2745948114
           1        9                 -3.7933400649                 -3.7959244171
           1       10                  6.3288803616                  6.2510614935 ***
           1       11                 27.8451455747                 27.8452636415
           2       12               -515.0295626295               -515.0294562869
           2       13                 15.1698434419                 15.1699322205
           2       14                -21.6038822678                -21.6039118108
           2       15                 -9.0211123393                 -9.0212703513
           2       16                  8.3047696391                  8.2854840999
           2       17                 45.8428042125                 45.8427461223
           3       18               -663.9471986398               -663.9470363156
           3       19                 16.8514011578                 16.8512525340
           3       20                -28.4490593856                -28.4490661455
           3       21                -11.1080115307                -11.1080620174
           3       22                  7.1940182175                  7.1685154136
           3       23                 44.8544281765                 44.8543763625
 * Note: Onsite integrals marked "***" above are less accurate than
 * onsite_accuracy_threshold =    0.03000 eV. Usually, this is harmless.
 * When in doubt, tighten the "radial" and/or "radial_multiplier" flags to check.

  Preparing densities etc. for the partition functions (integrals / Hartree potential).

  Preparations completed.
  max(cpu_time)          :      0.404 s.
  Wall clock time (cpu1) :      0.402 s.
------------------------------------------------------------
  After prepare_scf [GB]:   1038.84

  Initializing index lists of integration centers etc. from given atomic structure:
  Mapping all atomic coordinates to central unit cell.

  Initializing the k-points
  Using symmetry for reducing the k-points
  | k-points reduced from:       64 to       34
  | Number of k-points                             :        34
  The eigenvectors in the calculations are COMPLEX.
  | K-points in task   0:         1
  | K-points in task   1:         2
  | K-points in task   2:         2
  | K-points in task   3:         1
  | K-points in task   4:         1
  | K-points in task   5:         1
  | K-points in task   6:         1
  | K-points in task   7:         1
  | K-points in task   8:         1
  | K-points in task   9:         1
  | K-points in task  10:         1
  | K-points in task  11:         1
  | K-points in task  12:         1
  | K-points in task  13:         1
  | K-points in task  14:         1
  | K-points in task  15:         1
  | K-points in task  16:         1
  | K-points in task  17:         1
  | K-points in task  18:         1
  | K-points in task  19:         1
  | K-points in task  20:         1
  | K-points in task  21:         1
  | K-points in task  22:         1
  | K-points in task  23:         1
  | K-points in task  24:         1
  | K-points in task  25:         1
  | K-points in task  26:         1
  | K-points in task  27:         1
  | K-points in task  28:         1
  | K-points in task  29:         1
  | K-points in task  30:         1
  | K-points in task  31:         1
  | Number of basis functions in the Hamiltonian integrals :      4888
  | Number of basis functions in a single unit cell        :       472
  | Number of centers in hartree potential         :      1430
  | Number of centers in hartree multipole         :       690
  | Number of centers in electron density summation:       552
  | Number of centers in basis integrals           :       576
  | Number of centers in integrals                 :       310
  | Number of centers in hamiltonian               :       558
  | Consuming         32 KiB for k_phase.
  | Number of super-cells (origin) [n_cells]                     :         405
  | Number of super-cells (after PM_index) [n_cells]             :          62
  | Number of super-cells in hamiltonian [n_cells_in_hamiltonian]:          62
  | Size of matrix packed + index [n_hamiltonian_matrix_size] :      558283
  After initialize_bc_dependent_lists [GB]:   1038.84

------------------------------------------------------------
          Begin self-consistency loop: Initialization.

          Date     :  20250315, Time     :  164759.362
------------------------------------------------------------
  Available memory per node after initialize_hartree_non_periodic_ewald [GB]:   1038.84
  | Estimated reciprocal-space cutoff momentum G_max:         1.91888898 bohr^-1 .
  | Reciprocal lattice points for long-range Hartree potential:     692
  Available memory per node after initialize_recip_hartree_potential [GB]:   1038.84
  Available memory per node after initialize_scalapack [GB]:   1038.84
  Available memory per node after aims_elsi_init_scf [GB]:   1038.84
  Available memory per node after initialize_fixed_grids [GB]:   1038.84
  Partitioning the integration grid into batches with parallel hashing+maxmin method.
  | Number of batches:     1812
  | Maximal batch size:     159
  | Minimal batch size:      57
  | Average batch size:      85.299
  | Standard deviation of batch sizes:      29.058

  Integration load balanced across    32 MPI tasks.
  Work distribution over tasks is as follows:
  Task     0 has       4834 integration points.
  Task     1 has       4845 integration points.
  Task     2 has       4799 integration points.
  Task     3 has       4849 integration points.
  Task     4 has       4838 integration points.
  Task     5 has       4855 integration points.
  Task     6 has       4804 integration points.
  Task     7 has       4839 integration points.
  Task     8 has       4844 integration points.
  Task     9 has       4850 integration points.
  Task    10 has       4842 integration points.
  Task    11 has       4797 integration points.
  Task    12 has       4838 integration points.
  Task    13 has       4816 integration points.
  Task    14 has       4855 integration points.
  Task    15 has       4827 integration points.
  Task    16 has       4814 integration points.
  Task    17 has       4842 integration points.
  Task    18 has       4852 integration points.
  Task    19 has       4846 integration points.
  Task    20 has       4841 integration points.
  Task    21 has       4858 integration points.
  Task    22 has       4854 integration points.
  Task    23 has       4835 integration points.
  Task    24 has       4796 integration points.
  Task    25 has       4836 integration points.
  Task    26 has       4808 integration points.
  Task    27 has       4798 integration points.
  Task    28 has       4810 integration points.
  Task    29 has       4827 integration points.
  Task    30 has       4802 integration points.
  Task    31 has       4811 integration points.
  Available memory per node after partition_grid [GB]:   1038.84
  Initializing partition tables, free-atom densities, potentials, etc. across the integration grid (initialize_grid_storage).
  | initialize_grid_storage: Actual outermost partition radius vs. multipole_radius_free
  | (-- VB: in principle, multipole_radius_free should be larger, hence this output)
  | Species        1: Confinement radius =              4.999999999999999 AA, multipole_radius_free =              5.002391649902235 AA.
  | Species        1: outer_partition_radius set to              5.002391649902235 AA .
  | Species        2: Confinement radius =              4.999999999999999 AA, multipole_radius_free =              5.048384829883283 AA.
  | Species        2: outer_partition_radius set to              5.048384829883283 AA .
  | Species        3: Confinement radius =              4.999999999999999 AA, multipole_radius_free =              5.009370088163274 AA.
  | Species        3: outer_partition_radius set to              5.009370088163274 AA .
  | The sparse table of interatomic distances needs        846.03 kbyte instead of      2654.21 kbyte of memory.
  | Net number of integration points:   154562
  | of which are non-zero points    :   130010
  | Numerical average free-atom electrostatic potential    :     -5.19545925 eV
  Available memory per node after initialize_grid_storage_p1 [GB]:   1038.84
  Renormalizing the initial density to the exact electron count on the 3D integration grid.
  | Initial density: Formal number of electrons (from input files) :     305.0000000000
  | Integrated number of electrons on 3D grid     :     304.9990806122
  | Charge integration error                      :      -0.0009193878
  | Normalization factor for density and gradient :       1.0000030144
  Renormalizing the free-atom superposition density to the exact electron count on the 3D integration grid.
  | Formal number of electrons (from input files) :     304.0000000000
  | Integrated number of electrons on 3D grid     :     304.9990806122
  | Charge integration error                      :      -0.0009193878
  | Normalization factor for density and gradient :       1.0000030144
  Obtaining max. number of non-zero basis functions in each batch (get_n_compute_maxes).
  | Maximal number of non-zero basis functions:      675 in task     0
  | Maximal number of non-zero basis functions:      669 in task     1
  | Maximal number of non-zero basis functions:      715 in task     2
  | Maximal number of non-zero basis functions:      708 in task     3
  | Maximal number of non-zero basis functions:      695 in task     4
  | Maximal number of non-zero basis functions:      689 in task     5
  | Maximal number of non-zero basis functions:      718 in task     6
  | Maximal number of non-zero basis functions:      718 in task     7
  | Maximal number of non-zero basis functions:      708 in task     8
  | Maximal number of non-zero basis functions:      697 in task     9
  | Maximal number of non-zero basis functions:      718 in task    10
  | Maximal number of non-zero basis functions:      705 in task    11
  | Maximal number of non-zero basis functions:      696 in task    12
  | Maximal number of non-zero basis functions:      685 in task    13
  | Maximal number of non-zero basis functions:      708 in task    14
  | Maximal number of non-zero basis functions:      696 in task    15
  | Maximal number of non-zero basis functions:      665 in task    16
  | Maximal number of non-zero basis functions:      699 in task    17
  | Maximal number of non-zero basis functions:      718 in task    18
  | Maximal number of non-zero basis functions:      720 in task    19
  | Maximal number of non-zero basis functions:      697 in task    20
  | Maximal number of non-zero basis functions:      708 in task    21
  | Maximal number of non-zero basis functions:      678 in task    22
  | Maximal number of non-zero basis functions:      681 in task    23
  | Maximal number of non-zero basis functions:      708 in task    24
  | Maximal number of non-zero basis functions:      695 in task    25
  | Maximal number of non-zero basis functions:      688 in task    26
  | Maximal number of non-zero basis functions:      684 in task    27
  | Maximal number of non-zero basis functions:      715 in task    28
  | Maximal number of non-zero basis functions:      699 in task    29
  | Maximal number of non-zero basis functions:      706 in task    30
  | Maximal number of non-zero basis functions:      687 in task    31
  Available memory per node after get_n_compute_maxes_p1 [GB]:   1038.84
  Initialize hartree_potential_storage
  Max. number of atoms included in rho_multipole:           24

  Evaluating partitioned Hartree potential by multipole expansion.
  | Original multipole sum: apparent total charge =   0.662325E-13
  | Sum of charges compensated after spline to logarithmic grids =   0.000000E+00
  | Analytical far-field extrapolation by fixed multipoles:
  | Hartree multipole sum: apparent total charge =   0.000000E+00
  Summing up the Hartree potential.
  | Ewald reciprocal-space coefficients, myid =     0 : cpu      0.000 s, wall      0.000 s.
  | Ewald reciprocal-space coefficients, myid =     1 : cpu      0.000 s, wall      0.000 s.
  | Ewald reciprocal-space coefficients, myid =     2 : cpu      0.000 s, wall      0.000 s.
  | Ewald reciprocal-space coefficients, myid =     3 : cpu      0.000 s, wall      0.000 s.
  | Ewald reciprocal-space coefficients, myid =     4 : cpu      0.000 s, wall      0.000 s.
  | Ewald reciprocal-space coefficients, myid =     5 : cpu      0.000 s, wall      0.000 s.
  | Ewald reciprocal-space coefficients, myid =     6 : cpu      0.000 s, wall      0.000 s.
  | Ewald reciprocal-space coefficients, myid =     7 : cpu      0.000 s, wall      0.000 s.
  | Ewald reciprocal-space coefficients, myid =     8 : cpu      0.000 s, wall      0.000 s.
  | Ewald reciprocal-space coefficients, myid =     9 : cpu      0.000 s, wall      0.000 s.
  | Ewald reciprocal-space coefficients, myid =    10 : cpu      0.000 s, wall      0.000 s.
  | Ewald reciprocal-space coefficients, myid =    11 : cpu      0.000 s, wall      0.000 s.
  | Ewald reciprocal-space coefficients, myid =    12 : cpu      0.000 s, wall      0.000 s.
  | Ewald reciprocal-space coefficients, myid =    13 : cpu      0.000 s, wall      0.000 s.
  | Ewald reciprocal-space coefficients, myid =    14 : cpu      0.000 s, wall      0.000 s.
  | Ewald reciprocal-space coefficients, myid =    15 : cpu      0.000 s, wall      0.000 s.
  | Ewald reciprocal-space coefficients, myid =    16 : cpu      0.000 s, wall      0.000 s.
  | Ewald reciprocal-space coefficients, myid =    17 : cpu      0.000 s, wall      0.000 s.
  | Ewald reciprocal-space coefficients, myid =    18 : cpu      0.000 s, wall      0.000 s.
  | Ewald reciprocal-space coefficients, myid =    19 : cpu      0.000 s, wall      0.000 s.
  | Ewald reciprocal-space coefficients, myid =    20 : cpu      0.000 s, wall      0.000 s.
  | Ewald reciprocal-space coefficients, myid =    21 : cpu      0.000 s, wall      0.000 s.
  | Ewald reciprocal-space coefficients, myid =    22 : cpu      0.000 s, wall      0.000 s.
  | Ewald reciprocal-space coefficients, myid =    23 : cpu      0.000 s, wall      0.000 s.
  | Ewald reciprocal-space coefficients, myid =    24 : cpu      0.000 s, wall      0.000 s.
  | Ewald reciprocal-space coefficients, myid =    25 : cpu      0.000 s, wall      0.000 s.
  | Ewald reciprocal-space coefficients, myid =    26 : cpu      0.000 s, wall      0.000 s.
  | Ewald reciprocal-space coefficients, myid =    27 : cpu      0.000 s, wall      0.000 s.
  | Ewald reciprocal-space coefficients, myid =    28 : cpu      0.000 s, wall      0.000 s.
  | Ewald reciprocal-space coefficients, myid =    29 : cpu      0.000 s, wall      0.000 s.
  | Ewald reciprocal-space coefficients, myid =    30 : cpu      0.000 s, wall      0.000 s.
  | Ewald reciprocal-space coefficients, myid =    31 : cpu      0.000 s, wall      0.000 s.
  Time summed over all CPUs for potential: real work        0.042 s, elapsed        0.043 s
  | RMS charge density error from multipole expansion :   0.366958E-13
  | Average real-space part of the electrostatic potential :     -0.00000000 eV

  Allocating        3.515 MB for KS_eigenvector_complex
  Available memory per node after allocate_matrices [GB]:   1038.83
  Available memory per node after init_comm_sparse_local_matrix_scalapack [GB]:   1038.82
  Integrating Hamiltonian matrix: batch-based integration.
  Time summed over all CPUs for integration: real work       24.443 s, elapsed       26.443 s
  Available memory per node after integrate hamiltonian matrix [GB]:   1038.46
  Integrating overlap matrix.
  Time summed over all CPUs for integration: real work        4.050 s, elapsed        4.652 s
  Available memory per node after integrate ovlp matrix [GB]:   1038.23
  Available memory per node after ASI_callbacks invoke [GB]:   1038.23
  Available memory per node after save_overlap_scalapack [GB]:   1038.23

  Updating Kohn-Sham eigenvalues and eigenvectors using ELSI and the (modified) LAPACK eigensolver.
  Singularity check in k-point 32, task 0 (analysis for other k-points/tasks may follow below):
  Overlap matrix is not singular
  | Lowest and highest eigenvalues :  0.1383E-02,  0.7688E+01
  Finished singularity check of overlap matrix
  | Time :     0.057 s
  Starting LAPACK eigensolver
  Finished Cholesky decomposition
  | Time :     0.011 s
  Finished transformation to standard eigenproblem
  | Time :     0.015 s
  Finished solving standard eigenproblem
  | Time :     0.067 s
  Finished back-transformation of eigenvectors
  | Time :     0.006 s

  Obtaining occupation numbers and electronic chemical potential using ELSI.
  | Note that, for insulating systems, the printed 'chemical potential' value is not uniquely defined.
  | It can be anywhere in the energy gap, as long as it correctly separates occupied and unoccupied states.
  | In systems with a gap, the physically relevant chemical potential is the VBM or HOMO.

  | Chemical potential (Fermi level):    -5.42238302 eV
  Available memory per node after advance_KS_solution [GB]:   1037.95
  Writing Kohn-Sham eigenvalues.

  Spin-up eigenvalues:
  K-point:       1 at    0.000000    0.000000    0.000000 (in units of recip. lattice)

  State    Occupation    Eigenvalue [Ha]    Eigenvalue [eV]
      1       1.00000        -179.962364        -4897.02507
      2       1.00000        -179.962364        -4897.02507
      3       1.00000        -179.961713        -4897.00736
      4       1.00000        -179.961713        -4897.00736
      5       1.00000        -179.961228        -4896.99417
      6       1.00000        -179.961228        -4896.99417
      7       1.00000        -179.961228        -4896.99417
      8       1.00000        -179.961227        -4896.99414
      9       1.00000         -24.474003         -665.97151
     10       1.00000         -19.737905         -537.09573
     11       1.00000         -19.737905         -537.09573
     12       1.00000         -19.737210         -537.07682
     13       1.00000         -19.737210         -537.07682
     14       1.00000         -19.736670         -537.06212
     15       1.00000         -19.736670         -537.06212
     16       1.00000         -19.736670         -537.06212
     17       1.00000         -19.736669         -537.06209
     18       1.00000         -19.034648         -517.95913
     19       1.00000         -19.034648         -517.95913
     20       1.00000         -19.034648         -517.95913
     21       1.00000         -19.034582         -517.95734
     22       1.00000         -19.034527         -517.95582
     23       1.00000         -19.034527         -517.95582
     24       1.00000         -19.034526         -517.95581
     25       1.00000         -19.034526         -517.95581
     26       1.00000         -19.034504         -517.95520
     27       1.00000         -19.034504         -517.95520
     28       1.00000         -19.034504         -517.95519
     29       1.00000         -19.034504         -517.95519
     30       1.00000         -19.001837         -517.06629
     31       1.00000         -19.001837         -517.06629
     32       1.00000         -19.001816         -517.06571
     33       1.00000         -16.328081         -444.30969
     34       1.00000         -16.328081         -444.30969
     35       1.00000         -16.327761         -444.30097
     36       1.00000         -16.327761         -444.30097
     37       1.00000         -16.327754         -444.30080
     38       1.00000         -16.327754         -444.30080
     39       1.00000         -16.327382         -444.29068
     40       1.00000         -16.327382         -444.29068
     41       1.00000         -16.327096         -444.28288
     42       1.00000         -16.327096         -444.28288
     43       1.00000         -16.327059         -444.28188
     44       1.00000         -16.327059         -444.28188
     45       1.00000         -16.326910         -444.27782
     46       1.00000         -16.326910         -444.27782
     47       1.00000         -16.326910         -444.27782
     48       1.00000         -16.326909         -444.27780
     49       1.00000         -16.326601         -444.26941
     50       1.00000         -16.326601         -444.26941
     51       1.00000         -16.326601         -444.26941
     52       1.00000         -16.326600         -444.26938
     53       1.00000         -16.326436         -444.26493
     54       1.00000         -16.326436         -444.26493
     55       1.00000         -16.326436         -444.26493
     56       1.00000         -16.326435         -444.26490
     57       1.00000          -2.309005          -62.83123
     58       1.00000          -2.307760          -62.79735
     59       1.00000          -2.307215          -62.78252
     60       1.00000          -2.306181          -62.75438
     61       1.00000          -2.306144          -62.75337
     62       1.00000          -2.305952          -62.74815
     63       1.00000          -2.304410          -62.70620
     64       1.00000          -2.304407          -62.70609
     65       1.00000          -1.463757          -39.83085
     66       1.00000          -1.463624          -39.82725
     67       1.00000          -1.462093          -39.78557
     68       1.00000          -1.462051          -39.78443
     69       1.00000          -1.448757          -39.42269
     70       1.00000          -1.448269          -39.40941
     71       1.00000          -1.446294          -39.35565
     72       1.00000          -1.445923          -39.34557
     73       1.00000          -1.441279          -39.21918
     74       1.00000          -1.441099          -39.21431
     75       1.00000          -1.440347          -39.19384
     76       1.00000          -1.439739          -39.17729
     77       1.00000          -1.439118          -39.16039
     78       1.00000          -1.439097          -39.15983
     79       1.00000          -1.438832          -39.15260
     80       1.00000          -1.438767          -39.15085
     81       1.00000          -1.438152          -39.13412
     82       1.00000          -1.437854          -39.12600
     83       1.00000          -1.437814          -39.12491
     84       1.00000          -1.437200          -39.10819
     85       1.00000          -1.433065          -38.99568
     86       1.00000          -1.432945          -38.99241
     87       1.00000          -1.431865          -38.96304
     88       1.00000          -1.431795          -38.96112
     89       1.00000          -1.194167          -32.49494
     90       1.00000          -1.056982          -28.76193
     91       1.00000          -1.048803          -28.53938
     92       1.00000          -1.032426          -28.09375
     93       1.00000          -1.026938          -27.94440
     94       1.00000          -1.026766          -27.93973
     95       1.00000          -1.025633          -27.90890
     96       1.00000          -1.024245          -27.87111
     97       1.00000          -1.020866          -27.77919
     98       1.00000          -1.015924          -27.64471
     99       1.00000          -1.014391          -27.60299
    100       1.00000          -1.006626          -27.39170
    101       1.00000          -1.005134          -27.35109
    102       1.00000          -0.981904          -26.71898
    103       1.00000          -0.980383          -26.67759
    104       1.00000          -0.979240          -26.64647
    105       1.00000          -0.575039          -15.64760
    106       1.00000          -0.572600          -15.58124
    107       1.00000          -0.552255          -15.02762
    108       1.00000          -0.547452          -14.89691
    109       1.00000          -0.542476          -14.76152
    110       1.00000          -0.541399          -14.73221
    111       1.00000          -0.538404          -14.65071
    112       1.00000          -0.536516          -14.59933
    113       1.00000          -0.533254          -14.51058
    114       1.00000          -0.531178          -14.45410
    115       1.00000          -0.530051          -14.42341
    116       1.00000          -0.525596          -14.30218
    117       1.00000          -0.519837          -14.14548
    118       1.00000          -0.514913          -14.01149
    119       1.00000          -0.513937          -13.98492
    120       1.00000          -0.512282          -13.93990
    121       1.00000          -0.508986          -13.85021
    122       1.00000          -0.503431          -13.69906
    123       1.00000          -0.502468          -13.67285
    124       1.00000          -0.500896          -13.63008
    125       1.00000          -0.499296          -13.58654
    126       1.00000          -0.495181          -13.47456
    127       1.00000          -0.489079          -13.30853
    128       1.00000          -0.488648          -13.29680
    129       1.00000          -0.485515          -13.21154
    130       1.00000          -0.477512          -12.99377
    131       1.00000          -0.475091          -12.92788
    132       1.00000          -0.474768          -12.91910
    133       1.00000          -0.466788          -12.70194
    134       1.00000          -0.465009          -12.65353
    135       1.00000          -0.464457          -12.63852
    136       1.00000          -0.463468          -12.61162
    137       1.00000          -0.460399          -12.52809
    138       1.00000          -0.456921          -12.43345
    139       1.00000          -0.451612          -12.28898
    140       1.00000          -0.451039          -12.27340
    141       1.00000          -0.449033          -12.21880
    142       1.00000          -0.446982          -12.16301
    143       1.00000          -0.444764          -12.10266
    144       1.00000          -0.437218          -11.89730
    145       1.00000          -0.437031          -11.89222
    146       1.00000          -0.435648          -11.85460
    147       1.00000          -0.434057          -11.81130
    148       1.00000          -0.433320          -11.79124
    149       1.00000          -0.430162          -11.70529
    150       1.00000          -0.417503          -11.36085
    151       1.00000          -0.414801          -11.28732
    152       1.00000          -0.411613          -11.20056
    153       0.00000          -0.188204           -5.12129
    154       0.00000          -0.187778           -5.10971
    155       0.00000          -0.178384           -4.85408
    156       0.00000          -0.175439           -4.77394
    157       0.00000          -0.172243           -4.68696
    158       0.00000          -0.169443           -4.61077
    159       0.00000          -0.160743           -4.37404
    160       0.00000          -0.157598           -4.28846
    161       0.00000          -0.157211           -4.27793
    162       0.00000          -0.155670           -4.23600
    163       0.00000          -0.155188           -4.22288
    164       0.00000          -0.153828           -4.18587
    165       0.00000          -0.152212           -4.14191
    166       0.00000          -0.145783           -3.96695
    167       0.00000          -0.145262           -3.95277
    168       0.00000          -0.144760           -3.93913
    169       0.00000          -0.142523           -3.87825
    170       0.00000          -0.138823           -3.77758
    171       0.00000          -0.137261           -3.73507
    172       0.00000          -0.137231           -3.73425
    173       0.00000          -0.133770           -3.64007
    174       0.00000          -0.132523           -3.60612
    175       0.00000          -0.129451           -3.52253
    176       0.00000          -0.125143           -3.40531
    177       0.00000          -0.123077           -3.34911
    178       0.00000          -0.110032           -2.99413
    179       0.00000          -0.105289           -2.86507
    180       0.00000          -0.105228           -2.86339
    181       0.00000          -0.079854           -2.17294
    182       0.00000          -0.068080           -1.85255
    183       0.00000          -0.064031           -1.74238
    184       0.00000          -0.059366           -1.61542
    185       0.00000          -0.055540           -1.51132
    186       0.00000          -0.049979           -1.35999
    187       0.00000          -0.048819           -1.32843
    188       0.00000          -0.047443           -1.29100
    189       0.00000          -0.046330           -1.26069
    190       0.00000          -0.042730           -1.16274
    191       0.00000          -0.039800           -1.08302
    192       0.00000          -0.039505           -1.07500
    193       0.00000          -0.033414           -0.90924
    194       0.00000          -0.029017           -0.78958
    195       0.00000           0.031644            0.86109
    196       0.00000           0.063409            1.72545
    197       0.00000           0.072894            1.98355
    198       0.00000           0.081329            2.21308
    199       0.00000           0.082466            2.24401
    200       0.00000           0.090865            2.47257
    201       0.00000           0.101818            2.77060
    202       0.00000           0.104284            2.83771
    203       0.00000           0.107676            2.93000
    204       0.00000           0.113797            3.09658
    205       0.00000           0.130676            3.55587
    206       0.00000           0.168875            4.59532
    207       0.00000           0.169105            4.60158
    208       0.00000           0.182464            4.96509
    209       0.00000           0.183514            4.99368
    210       0.00000           0.189264            5.15015
    211       0.00000           0.199544            5.42988
    212       0.00000           0.217526            5.91919
    213       0.00000           0.232125            6.31645
    214       0.00000           0.232271            6.32043
    215       0.00000           0.238024            6.47697
    216       0.00000           0.248697            6.76739
    217       0.00000           0.253878            6.90838
    218       0.00000           0.258420            7.03197
    219       0.00000           0.267185            7.27048
    220       0.00000           0.268976            7.31920
    221       0.00000           0.302995            8.24491
    222       0.00000           0.304763            8.29303
    223       0.00000           0.313674            8.53549
    224       0.00000           0.317608            8.64254
    225       0.00000           0.323543            8.80406
    226       0.00000           0.330757            9.00035
    227       0.00000           0.343739            9.35362
    228       0.00000           0.359417            9.78024
    229       0.00000           0.367527           10.00091
[...]
    175       0.00000          -0.263195           -7.16189
    176       0.00000          -0.261018           -7.10267
    177       0.00000          -0.246870           -6.71766
    178       0.00000          -0.237932           -6.47446
    179       0.00000          -0.229260           -6.23849
    180       0.00000          -0.220336           -5.99565
    181       0.00000          -0.210067           -5.71621
    182       0.00000          -0.206949           -5.63137
    183       0.00000          -0.202446           -5.50885
    184       0.00000          -0.190201           -5.17563
    185       0.00000          -0.189446           -5.15509
    186       0.00000          -0.179543           -4.88562
    187       0.00000          -0.177662           -4.83442
    188       0.00000          -0.164841           -4.48556
    189       0.00000          -0.162619           -4.42508
    190       0.00000          -0.160810           -4.37585
    191       0.00000          -0.135893           -3.69785
    192       0.00000          -0.134175           -3.65108
    193       0.00000          -0.119825           -3.26060
    194       0.00000          -0.107757           -2.93222
    195       0.00000          -0.032792           -0.89230
    196       0.00000          -0.024449           -0.66529
    197       0.00000          -0.009610           -0.26151
    198       0.00000           0.004034            0.10977
    199       0.00000           0.015407            0.41924
    200       0.00000           0.035337            0.96156
    201       0.00000           0.036667            0.99775
    202       0.00000           0.056117            1.52702
    203       0.00000           0.061034            1.66081
    204       0.00000           0.065770            1.78969
    205       0.00000           0.077040            2.09637
    206       0.00000           0.108468            2.95157
    207       0.00000           0.111390            3.03107
    208       0.00000           0.120840            3.28822
    209       0.00000           0.127692            3.47468
    210       0.00000           0.142859            3.88739
    211       0.00000           0.143413            3.90248
    212       0.00000           0.167026            4.54501
    213       0.00000           0.167987            4.57116
    214       0.00000           0.169887            4.62287
    215       0.00000           0.181663            4.94330
    216       0.00000           0.185031            5.03496
    217       0.00000           0.185915            5.05901
    218       0.00000           0.191138            5.20114
    219       0.00000           0.200433            5.45407
    220       0.00000           0.228624            6.22117
    221       0.00000           0.237967            6.47542
    222       0.00000           0.246364            6.70391
    223       0.00000           0.246628            6.71108
    224       0.00000           0.251640            6.84748
    225       0.00000           0.254757            6.93229
    226       0.00000           0.262223            7.13546
    227       0.00000           0.279055            7.59346
    228       0.00000           0.280052            7.62061
    229       0.00000           0.299505            8.14996
    230       0.00000           0.313982            8.54388
    231       0.00000           0.314810            8.56642
    232       0.00000           0.319013            8.68078
    233       0.00000           0.321827            8.75737
    234       0.00000           0.326857            8.89424
    235       0.00000           0.334726            9.10835
    236       0.00000           0.345523            9.40216
    237       0.00000           0.346962            9.44132
    238       0.00000           0.365262            9.93927
    239       0.00000           0.389740           10.60536
    240       0.00000           0.392359           10.67664
    241       0.00000           0.402940           10.96455
    242       0.00000           0.407679           11.09351
    243       0.00000           0.424115           11.54074
    244       0.00000           0.426443           11.60410

  Current spin moment of the entire structure :
  | N = N_up - N_down (sum over all k points):         0.00000
  | S (sum over all k points)                :         0.00000

  What follows are estimated values for band gap, HOMO, LUMO, etc.
  | They are estimated on a discrete k-point grid and not necessarily exact.
  | For converged numbers, create a DOS and/or band structure plot on a denser k-grid.

  Highest occupied state (VBM) at    -10.30535989 eV (relative to internal zero)
  | Occupation number:      1.00000000
  | K-point:       1 at    0.000000    0.000000    0.000000 (in units of recip. lattice)
  | Spin channel:        2

  Lowest unoccupied state (CBM) at    -9.41891649 eV (relative to internal zero)
  | Occupation number:      0.00000000
  | K-point:       1 at    0.000000    0.000000    0.000000 (in units of recip. lattice)
  | Spin channel:        1

  ESTIMATED overall HOMO-LUMO gap:      0.88644340 eV between HOMO at k-point 1 and LUMO at k-point 1
  | This appears to be a direct band gap.
  The gap value is above 0.2 eV. Unless you are using a very sparse k-point grid,
  this system is most likely an insulator or a semiconductor.

  Total energy components:
  | Sum of eigenvalues            :       -4791.47295250 Ha     -130382.61283175 eV
  | XC energy correction          :        -475.69323996 Ha      -12944.27165649 eV
  | XC potential correction       :         615.00606566 Ha       16735.16652246 eV
  | Free-atom electrostatic energy:       -3435.70558039 Ha      -93490.30557666 eV
  | Hartree energy correction     :          27.80649673 Ha         756.65327411 eV
  | Entropy correction            :          -0.00000000 Ha          -0.00000000 eV
  | ---------------------------
  | Total energy                  :       -8060.05921045 Ha     -219325.37026833 eV
  | Total energy, T -> 0          :       -8060.05921045 Ha     -219325.37026833 eV  <-- do not rely on this value for anything but (periodic) metals
  | Electronic free energy        :       -8060.05921045 Ha     -219325.37026833 eV

  Derived energy quantities:
  | Kinetic energy                :        8153.76259539 Ha      221875.16910496 eV
  | Electrostatic energy          :      -15738.12856589 Ha     -428256.26771680 eV
  | Energy correction for multipole
  | error in Hartree potential    :           0.07395992 Ha           2.01255191 eV
  | Sum of eigenvalues per atom                           :       -5432.60886799 eV
  | Total energy (T->0) per atom                          :       -9138.55709451 eV  <-- do not rely on this value for anything but (periodic) metals
  | Electronic free energy per atom                       :       -9138.55709451 eV
  End evaluation of scaled ZORA corrections.
  | Time for scaled ZORA corrections            :        2.174 s           2.175 s
------------------------------------------------------------

  Energy and forces in a compact form:
  | Total energy uncorrected      :         -0.219325370268335E+06 eV
  | Total energy corrected        :         -0.219325370268335E+06 eV  <-- do not rely on this value for anything but (periodic) metals
  | Electronic free energy        :         -0.219325370268335E+06 eV

  ------------------------------------ 
  Start decomposition of the XC Energy 
  ------------------------------------ 
  X and C from original XC functional choice 
  Hartree-Fock Energy :          0.000000000 Ha              0.000000000 eV
  X Energy            :       -463.736128830 Ha         -12618.902108139 eV
  C Energy            :        -11.957111126 Ha           -325.369548350 eV
  XC Energy w/o HF    :       -475.693239956 Ha         -12944.271656489 eV
  Total XC Energy     :       -475.693239956 Ha         -12944.271656489 eV
  ------------------------------------ 
  LDA X and C from self-consistent density 
  X Energy LDA        :       -430.328770228 Ha         -11709.841628098 eV
  C Energy LDA        :        -23.494422727 Ha           -639.315770438 eV
  ------------------------------------ 
  End decomposition of the XC Energy 
  ------------------------------------ 

------------------------------------------------------------

  ------------------------------------------------------------
                   Starting Mulliken Analysis
  ------------------------------------------------------------

  Performing Mulliken charge analysis on all atoms.
  Full analysis will be written to separate file 'Mulliken.out'.
  Summary of the per-atom charge analysis:
  |
  |  atom       electrons          charge             l=0             l=1             l=2             l=3
  |     1        8.374470       -0.374470        3.890932        4.471569        0.011968
  |     2        8.626203       -0.626203        3.859318        4.756338        0.010547
  |     3       20.673722        1.326278        6.081588       12.425084        2.045270        0.121779
  |     4       20.907896        1.092104        6.038829       12.506747        2.219423        0.142897
  |     5        8.626206       -0.626206        3.859317        4.756341        0.010547
  |     6        8.574341       -0.574341        3.840977        4.722494        0.010870
  |     7        8.555058       -0.555058        3.838282        4.706228        0.010548
  |     8        8.643554       -0.643554        3.857725        4.775816        0.010012
  |     9       20.684575        1.315425        6.088664       12.413406        2.062813        0.119692
  |    10       20.826155        1.173845        6.037049       12.501097        2.142259        0.145749
  |    11        8.643554       -0.643554        3.857726        4.775816        0.010012
  |    12        8.382457       -0.382457        3.888454        4.482247        0.011756
  |    13        8.374087       -0.374087        3.891011        4.471112        0.011964
  |    14        8.626203       -0.626203        3.859318        4.756338        0.010547
  |    15       20.673274        1.326726        6.080946       12.425401        2.044986        0.121942
  |    16       20.907896        1.092104        6.038829       12.506747        2.219423        0.142897
  |    17        8.626206       -0.626206        3.859317        4.756341        0.010547
  |    18        8.573460       -0.573460        3.840682        4.721887        0.010891
  |    19        8.581955       -0.581955        3.839698        4.732208        0.010049
  |    20        8.643554       -0.643554        3.857725        4.775816        0.010012
  |    21       20.706629        1.293371        6.088526       12.417846        2.080832        0.119425
  |    22       20.826155        1.173845        6.037049       12.501097        2.142259        0.145749
  |    23        8.643554       -0.643554        3.857726        4.775816        0.010012
  |    24        9.298836       -0.298836        3.944077        5.343806        0.010954
  |
  | Total      304.000000        1.000000
 
  Summary of the per-atom spin analysis:
  |
  |  atom   spin      l=0         l=1         l=2         l=3
  |     1   -0.000000   -0.000000   -0.000000   -0.000000
  |     2   -0.000000    0.000000   -0.000000   -0.000000
  |     3    0.000000   -0.000000   -0.000000    0.000000   -0.000000
  |     4    0.000000    0.000000   -0.000000   -0.000000    0.000000
  |     5   -0.000000   -0.000000   -0.000000    0.000000
  |     6    0.000000    0.000000   -0.000000   -0.000000
  |     7   -0.000000    0.000000   -0.000000   -0.000000
  |     8   -0.000000   -0.000000   -0.000000   -0.000000
  |     9   -0.000000    0.000000   -0.000000   -0.000000   -0.000000
  |    10    0.000000    0.000000    0.000000    0.000000    0.000000
  |    11    0.000000   -0.000000    0.000000    0.000000
  |    12   -0.000000   -0.000000   -0.000000   -0.000000
  |    13    0.000000   -0.000000    0.000000   -0.000000
  |    14   -0.000000    0.000000   -0.000000   -0.000000
  |    15    0.000000    0.000000    0.000000    0.000000    0.000000
  |    16   -0.000000   -0.000000   -0.000000   -0.000000   -0.000000
  |    17   -0.000000    0.000000   -0.000000   -0.000000
  |    18   -0.000000    0.000000   -0.000000   -0.000000
  |    19   -0.000000   -0.000000   -0.000000    0.000000
  |    20   -0.000000   -0.000000   -0.000000   -0.000000
  |    21   -0.000000   -0.000000   -0.000000   -0.000000   -0.000000
  |    22    0.000000    0.000000    0.000000    0.000000    0.000000
  |    23    0.000000   -0.000000    0.000000    0.000000
  |    24   -0.000000    0.000000   -0.000000    0.000000
  |
  | Total    0.000000
 
  Writing Mulliken decomposition to disk ...

  Mulliken analysis                                       :  max(cpu_time)    wall_clock(cpu1)
  | Time for Mulliken analysis                            :          3.425               3.425
  | Total time for Mulliken analysis                      :          3.425               3.425
------------------------------------------------------------

------------------------------------------------------------------------------
  Final output of selected total energy values:

  The following output summarizes some interesting total energy values
  at the end of a run (AFTER all relaxation, molecular dynamics, etc.).

  | Total energy of the DFT / Hartree-Fock s.c.f. calculation      :        -219325.370268335 eV
  | Final zero-broadening corrected energy (caution - metals only) :        -219325.370268335 eV
  | For reference only, the value of 1 Hartree used in FHI-aims is :             27.211384500 eV
  | For reference only, the overall average (free atom contribution
  | + realspace contribution) of the electrostatic potential after
  | s.c.f. convergence is                                          :             -5.284425843 eV

  Before relying on these values, please be sure to understand exactly which
  total energy value is referred to by a given number. Different objects may
  all carry the same name 'total energy'. Definitions:

  Total energy of the DFT / Hartree-Fock s.c.f. calculation:
  | Note that this energy does not include ANY quantities calculated after the
  | s.c.f. cycle, in particular not ANY RPA, MP2, etc. many-body perturbation terms.
  | Scalar relativistic effects have been included in the 'scaled ZORA' approximation.

  Final zero-broadening corrected energy:
  | For metallic systems only, a broadening of the occupation numbers at the Fermi
  | level can be extrapolated back to zero broadening by an electron-gas inspired
  | formula. For all systems that are not real metals, this value can be
  | meaningless and should be avoided.

------------------------------------------------------------------------------
  Methods described in the following list of references were used in this FHI-aims run.
  If you publish the results, please make sure to cite these reference if they apply.
  FHI-aims is an academic code, and for our developers (often, Ph.D. students
  and postdocs), scientific credit in the community is essential.
  Thank you for helping us!

  For any use of FHI-aims, please cite:

    Volker Blum, Ralf Gehrke, Felix Hanke, Paula Havu, Ville Havu,
    Xinguo Ren, Karsten Reuter, and Matthias Scheffler
    'Ab initio molecular simulations with numeric atom-centered orbitals'
    Computer Physics Communications 180, 2175-2196 (2009)
    http://doi.org/10.1016/j.cpc.2009.06.022


  The provided symmetry information was generated with SPGlib:

    Atsushi Togo, Yusuke Seto, Dimitar Pashov
    SPGlib 1.7.3 obtained from http://spglib.sourceforge.net
    Licence: New BSD license
    Copyright (C) 2008 Atsushi Togo


  The ELSI infrastructure was used in your run to solve the Kohn-Sham electronic structure.
  Please check out https://wordpress.elsi-interchange.org to learn more.
  If scalability is important for your project, please acknowledge ELSI by citing:

    V. W-z. Yu, F. Corsetti, A. Garcia, W. P. Huhn, M. Jacquelin, W. Jia,
    B. Lange, L. Lin, J. Lu, W. Mi, A. Seifitokaldani, A. Vazquez-Mayagoitia,
    C. Yang, H. Yang, and V. Blum
    'ELSI: A unified software interface for Kohn-Sham electronic structure solvers'
    Computer Physics Communications 222, 267-285 (2018).
    http://doi.org/10.1016/j.cpc.2017.09.007


  For the real-space grid partitioning and parallelization used in this calculation, please cite:

    Ville Havu, Volker Blum, Paula Havu, and Matthias Scheffler,
    'Efficient O(N) integration for all-electron electronic structure calculation'
    'using numerically tabulated basis functions'
    Journal of Computational Physics 228, 8367-8379 (2009).
    http://doi.org/10.1016/j.jcp.2009.08.008

  Of course, there are many other important community references, e.g., those cited in the
  above references. Our list is limited to references that describe implementations in the
  FHI-aims code. The reason is purely practical (length of this list) - please credit others as well.

   One or more s.c.f. cycles took more than 50 s.c.f. iterations.
   It might be worth adjusting your convergence settings. For example,
   metals need a larger broadening and a smaller "charge_mix_param" value than semiconductors.

------------------------------------------------------------
          Leaving FHI-aims.
          Date     :  20250315, Time     :  165145.492

          Computational steps:
          | Number of self-consistency cycles          :           51
          | Number of SCF (re)initializations          :            1

          Detailed time accounting                     :  max(cpu_time)    wall_clock(cpu1)
          | Total time                                  :      226.604 s         226.615 s
          | Preparation time                            :        0.404 s           0.402 s
          | Boundary condition initalization            :        0.039 s           0.039 s
          | Grid partitioning                           :        0.100 s           0.100 s
          | Preloading free-atom quantities on grid     :        0.214 s           0.215 s
          | Free-atom superposition energy              :        0.022 s           0.022 s
          | Total time for integrations                 :       67.815 s          67.820 s
          | Total time for solution of K.-S. equations  :       22.652 s          22.648 s
          | Total time for density update               :       67.643 s          67.647 s
          | Total time for mixing & preconditioning     :       53.777 s          53.783 s
          | Total time for Hartree multipole update     :        0.105 s           0.103 s
          | Total time for Hartree multipole sum        :        8.121 s           8.121 s
          | Total time for total energy evaluation      :        0.035 s           0.047 s
          | Total time for scaled ZORA corrections      :        2.174 s           2.175 s
          | Total time for Mulliken analysis            :        3.425 s           3.425 s

          Partial memory accounting:
          | Residual value for overall tracked memory usage across tasks:     0.000000 MB (should be 0.000000 MB)
          | Peak values for overall tracked memory usage:
          |   Minimum:       40.963 MB (on task 16 after allocating zora_vector2)
          |   Maximum:       46.020 MB (on task  2 after allocating zora_vector2)
          |   Average:       42.239 MB
          | Largest tracked array allocation:
          |   Minimum:        8.519 MB (hamiltonian on task  0)
          |   Maximum:        8.519 MB (hamiltonian on task  0)
          |   Average:        8.519 MB
          Note:  These values currently only include a subset of arrays which are explicitly tracked.
          The "true" memory usage will be greater.

          Have a nice day.
------------------------------------------------------------
