------------------------------------------------------------
          Invoking FHI-aims ...

          When using FHI-aims, please cite the following reference:

            Volker Blum, Ralf Gehrke, Felix Hanke, Paula Havu,
            Ville Havu, Xinguo Ren, Karsten Reuter, and Matthias Scheffler,
            'Ab Initio Molecular Simulations with Numeric Atom-Centered Orbitals',
            Computer Physics Communications 180, 2175-2196 (2009)

          In addition, many other developments in FHI-aims are likely important for
          your particular application. If so, please cite them. A partial list of references
          is written at the end of this file. Thank you for giving credit to the authors
          of these developments.

          For general information about FHI-aims please find us at

            https://fhi-aims.org

          Online tutorials can be found at

            https://fhi-aims-club.gitlab.io/tutorials/tutorials-overview/

          For any questions about FHI-aims, please visit our slack channel at

            https://fhi-aims.slack.com

          and our main development and support site at

            https://aims-git.rz-berlin.mpg.de .

          The latter site, in particular, has a wiki to collect information, as well
          as an issue tracker to log discussions, suggest improvements, and report issues
          or bugs. https://aims-git.rz-berlin.mpg.de is also the main development site
          of the project and all new and updated code versions can be obtained there.
          Please send an email to aims-coordinators@fhi-berlin.mpg.de and we will add
          you to these sites. They are for you and everyone is welcome there.

------------------------------------------------------------



  Date     :  20240710, Time     :  232458.588
  Time zero on CPU 1             :   0.283211000000000E+00  s.
  Internal wall clock time zero  :           489885898.588  s.

  FHI-aims created a unique identifier for this run for later identification
  aims_uuid : 5E4BED05-D9AC-407E-AE90-09F20353C6AE

  Build configuration of the current instance of FHI-aims
  -------------------------------------------------------
  FHI-aims version      : 240605
  Commit number         : b001b2e18
  CMake host system     : Linux-6.5.0-41-generic
  CMake version         : 3.22.1
  Fortran compiler      : /opt/intel/oneapi/mpi/2021.12/bin/mpiifort (IntelLLVM) version 2024.1.0
  Fortran compiler flags: -fc=ifx -O3 -ip -fp-model precise
  C compiler            : /opt/intel/oneapi/mpi/2021.12/bin/mpiicc (IntelLLVM) version 2024.1.0
  C compiler flags      : -cc=icx -O3 -ip -fp-model precise -std=gnu99
  C++ compiler          : /opt/intel/oneapi/mpi/2021.12/bin/mpiicpc (IntelLLVM) version 2024.1.0
  C++ compiler flags    : -cxx=icpx -O3 -ip -fp-model precise -std=c++11
  HIP compiler          :
  HIP compiler flags    :
  HIP GPU arch          :
  Using MPI
  Using ScaLAPACK
  Using LibXC
  Using i-PI
  Using RLSY
  Linking against: /opt/intel/oneapi/mkl/2024.1/lib/intel64/libmkl_intel_lp64.so
                   /opt/intel/oneapi/mkl/2024.1/lib/intel64/libmkl_sequential.so
                   /opt/intel/oneapi/mkl/2024.1/lib/intel64/libmkl_core.so
                   /opt/intel/oneapi/mkl/2024.1/lib/intel64/libmkl_blacs_intelmpi_lp64.so
                   /opt/intel/oneapi/mkl/2024.1/lib/intel64/libmkl_scalapack_lp64.so
                   /opt/intel/oneapi/mkl/2024.1/lib/intel64/libmkl_core.so

  Using       24 parallel tasks.
  Task        0 on host RSL-arvutus reporting.
  Task        1 on host RSL-arvutus reporting.
  Task        2 on host RSL-arvutus reporting.
  Task        3 on host RSL-arvutus reporting.
  Task        4 on host RSL-arvutus reporting.
  Task        5 on host RSL-arvutus reporting.
  Task        6 on host RSL-arvutus reporting.
  Task        7 on host RSL-arvutus reporting.
  Task        8 on host RSL-arvutus reporting.
  Task        9 on host RSL-arvutus reporting.
  Task       10 on host RSL-arvutus reporting.
  Task       11 on host RSL-arvutus reporting.
  Task       12 on host RSL-arvutus reporting.
  Task       13 on host RSL-arvutus reporting.
  Task       14 on host RSL-arvutus reporting.
  Task       15 on host RSL-arvutus reporting.
  Task       16 on host RSL-arvutus reporting.
  Task       17 on host RSL-arvutus reporting.
  Task       18 on host RSL-arvutus reporting.
  Task       19 on host RSL-arvutus reporting.
  Task       20 on host RSL-arvutus reporting.
  Task       21 on host RSL-arvutus reporting.
  Task       22 on host RSL-arvutus reporting.
  Task       23 on host RSL-arvutus reporting.

  Memory overcommitment is allowed on your operating system.

  Obtaining array dimensions for all initial allocations:
  
  -----------------------------------------------------------------------
  Parsing control.in (first pass over file, find array dimensions only).
  The contents of control.in will be repeated verbatim below
  unless switched off by setting 'verbatim_writeout .false.' .
  in the first line of control.in .
  -----------------------------------------------------------------------
  
  xc              pbe
  relativistic    atomic_zora scalar
  k_grid          2 2 2
  relax_geometry  bfgs 5e-3
  relax_unit_cell full
  ################################################################################
  #
  #  FHI-aims code project
  #  VB, Fritz-Haber Institut, 2009
  #
  #  Suggested "light" defaults for Ti atom (to be pasted into control.in file)
  #  Be sure to double-check any results obtained with these settings for post-processing,
  #  e.g., with the "tight" defaults and larger basis sets.
  #
  ################################################################################
    species        Ti
  #     global species definitions
      nucleus             22
      mass                47.867
  #
      l_hartree           4
  #
      cut_pot             3.5          1.5  1.0
      basis_dep_cutoff    1e-4
  #
      radial_base         48 5.0
      radial_multiplier   1
      angular_grids       specified
        division   0.5171   50
        division   0.9824  110
        division   1.2917  194
        division   1.4940  302
  #      division   1.6934  434
  #      division   1.8425  590
  #      division   2.1901  770
  #      division   2.2896  974
  #      division   2.8244 1202
  #      outer_grid  974
        outer_grid  302
  ################################################################################
  #
  #  Definition of "minimal" basis
  #
  ################################################################################
  #     valence basis states
      valence      4  s   2.
      valence      3  p   6.
      valence      3  d   2.
  #     ion occupancy
      ion_occ      4  s   1.
      ion_occ      3  p   6.
      ion_occ      3  d   1.
  ################################################################################
  #
  #  Suggested additional basis functions. For production calculations,
  #  uncomment them one after another (the most important basis functions are
  #  listed first).
  #
  #  Constructed for dimers: 1.6 A, 1.85 A, 2.5 A, 3.25 A, 4.25 A
  #
  ################################################################################
  #  "First tier" - improvements: -396.25 meV to -19.41 meV
       hydro 4 f 8
       hydro 3 d 2.7
       ionic 4 p auto
  #     hydro 5 g 11.6
       ionic 4 s auto
  #  "Second tier" - improvements: -16.30 meV to -2.03 meV
  #     hydro 3 d 4.4
  #     hydro 6 h 16
  #     hydro 4 f 9.4
  #     hydro 4 p 4.5
  #     hydro 1 s 0.5
  #  "Third tier" - improvements: -6.28 meV to -0.37 meV
  #     hydro 4 d 6.4
  #     hydro 4 f 10
  #     hydro 5 g 12
  #     hydro 2 p 1.7
  #     hydro 6 h 16.4
  #     hydro 4 s 3.8
  #  Further basis functions: -0.45 meV and smaller improvements
  #     hydro 3 d 8.8
  #     hydro 5 p 18
  #     hydro 4 f 22.4
  #     hydro 5 f 7.2  # -0.16 meV
  #     hydro 3 d 2.1  # -0.11 meV
  #     hydro 5 g 7.4  # -0.09 meV
  ################################################################################
  #
  #  FHI-aims code project
  #  VB, Fritz-Haber Institut, 2009
  #
  #  Suggested "light" defaults for O atom (to be pasted into control.in file)
  #  Be sure to double-check any results obtained with these settings for post-processing,
  #  e.g., with the "tight" defaults and larger basis sets.
  #
  ################################################################################
    species        O
  #     global species definitions
      nucleus             8
      mass                15.9994
  #
      l_hartree           4
  #
      cut_pot             3.5  1.5  1.0
      basis_dep_cutoff    1e-4
  #
      radial_base         36 5.0
      radial_multiplier   1
       angular_grids specified
        division   0.2659   50
        division   0.4451  110
        division   0.6052  194
        division   0.7543  302
  #      division   0.8014  434
  #      division   0.8507  590
  #      division   0.8762  770
  #      division   0.9023  974
  #      division   1.2339 1202
  #      outer_grid 974
        outer_grid 302
  ################################################################################
  #
  #  Definition of "minimal" basis
  #
  ################################################################################
  #     valence basis states
      valence      2  s   2.
      valence      2  p   4.
  #     ion occupancy
      ion_occ      2  s   1.
      ion_occ      2  p   3.
  ################################################################################
  #
  #  Suggested additional basis functions. For production calculations,
  #  uncomment them one after another (the most important basis functions are
  #  listed first).
  #
  #  Constructed for dimers: 1.0 A, 1.208 A, 1.5 A, 2.0 A, 3.0 A
  #
  ################################################################################
  #  "First tier" - improvements: -699.05 meV to -159.38 meV
       hydro 2 p 1.8
       hydro 3 d 7.6
       hydro 3 s 6.4
  #  "Second tier" - improvements: -49.91 meV to -5.39 meV
  #     hydro 4 f 11.6
  #     hydro 3 p 6.2
  #     hydro 3 d 5.6
  #     hydro 5 g 17.6
  #     hydro 1 s 0.75
  #  "Third tier" - improvements: -2.83 meV to -0.50 meV
  #     ionic 2 p auto
  #     hydro 4 f 10.8
  #     hydro 4 d 4.7
  #     hydro 2 s 6.8
  #  "Fourth tier" - improvements: -0.40 meV to -0.12 meV
  #     hydro 3 p 5
  #     hydro 3 s 3.3
  #     hydro 5 g 15.6
  #     hydro 4 f 17.6
  #     hydro 4 d 14
  # Further basis functions - -0.08 meV and below
  #     hydro 3 s 2.1
  #     hydro 4 d 11.6
  #     hydro 3 p 16
  #     hydro 2 s 17.2
  
  -----------------------------------------------------------------------
  Completed first pass over input file control.in .
  -----------------------------------------------------------------------
  
  
  -----------------------------------------------------------------------
  Parsing geometry.in (first pass over file, find array dimensions only).
  The contents of geometry.in will be repeated verbatim below
  unless switched off by setting 'verbatim_writeout .false.' .
  in the first line of geometry.in .
  -----------------------------------------------------------------------
  
  lattice_vector 4.594000 0.000000 0.000000
  lattice_vector 0.000000 4.594000 0.000000
  lattice_vector 0.000000 0.000000 2.958000
  
  atom_frac 0.000000 0.000000 0.000000 Ti
  atom_frac 0.500000 0.500000 0.500000 Ti
  atom_frac 0.305000 0.305000 0.000000 O
  atom_frac 0.695000 0.695000 0.000000 O
  atom_frac 0.305000 0.695000 0.500000 O
  atom_frac 0.695000 0.305000 0.500000 O
  
  -----------------------------------------------------------------------
  Completed first pass over input file geometry.in .
  -----------------------------------------------------------------------
  

  Basic array size parameters:
  | Number of species                 :        2
  | Number of atoms                   :        6
  | Number of lattice vectors         :        3
  | Max. basis fn. angular momentum   :        3
  | Max. atomic/ionic basis occupied n:        4
  | Max. number of basis fn. types    :        3
  | Max. radial fns per species/type  :        7
  | Max. logarithmic grid size        :     1383
  | Max. radial integration grid size :       48
  | Max. angular integration grid size:      302
  | Max. angular grid division number :        8
  | Radial grid for Hartree potential :     1383
  | Number of spin channels           :        1

------------------------------------------------------------
          Reading file control.in.
------------------------------------------------------------
  XC: Using PBE gradient-corrected functionals.
  Scalar relativistic treatment of kinetic energy: on-site free-atom approximation to ZORA.
  Found k-point grid:         2         2         2
  Geometry relaxation: Modified BFGS - TRM (trust radius method) for lattice optimization.
  Convergence accuracy for geometry relaxation: Maximum force <   0.500000E-02 eV/A.
 
  Reading configuration options for species Ti                  .
  | Found nuclear charge :  22.0000
  | Found atomic mass :    47.8670000000000      amu
  | Found l_max for Hartree potential  :   4
  | Found cutoff potl. onset [A], width [A], scale factor :    3.50000    1.50000    1.00000
  | Threshold for basis-dependent cutoff potential is   0.100000E-03
  | Found data for basic radial integration grid :    48 points, outermost radius =    5.000 A
  | Found multiplier for basic radial grid :   1
  | Found angular grid specification: user-specified.
  | Specified grid contains     5 separate shells.
  | Check grid settings after all constraints further below.
  | Found free-atom valence shell :  4 s   2.000
  | Found free-atom valence shell :  3 p   6.000
  | Found free-atom valence shell :  3 d   2.000
  | Found free-ion valence shell :  4 s   1.000
  | Found free-ion valence shell :  3 p   6.000
  | Found free-ion valence shell :  3 d   1.000
  | Found hydrogenic basis function :  4 f   8.000
  | Found hydrogenic basis function :  3 d   2.700
  | Found ionic basis function :  4 p , default cutoff radius.
  | Found ionic basis function :  4 s , default cutoff radius.
 | Encountered keyword species, ending the description of species Ti                  .
  Species Ti                  : Missing cutoff potential type.
  Defaulting to exp(1/x)/(1-x)^2 type cutoff potential.
  Species Ti: No 'logarithmic' tag. Using default grid for free atom:
  | Default logarithmic grid data [bohr] : 0.1000E-03 0.1000E+03 0.1012E+01
  | Will include ionic basis functions of  2.0-fold positive Ti                   ion.
  Species Ti: On-site basis accuracy parameter (for Gram-Schmidt orthonormalisation) not specified.
  Using default value basis_acc =  0.1000000E-03.
  Species Ti                  : Using default innermost maximum threshold i_radial=  2 for radial functions.
  Species Ti                  : Default cutoff onset for free atom density etc. : 0.35000000E+01 AA.
  Species Ti                  : Basic radial grid will be enhanced according to radial_multiplier =   1, to contain    48 grid points.
 
  Reading configuration options for species O                   .
  | Found nuclear charge :   8.0000
  | Found atomic mass :    15.9994000000000      amu
  | Found l_max for Hartree potential  :   4
  | Found cutoff potl. onset [A], width [A], scale factor :    3.50000    1.50000    1.00000
  | Threshold for basis-dependent cutoff potential is   0.100000E-03
  | Found data for basic radial integration grid :    36 points, outermost radius =    5.000 A
  | Found multiplier for basic radial grid :   1
  | Found angular grid specification: user-specified.
  | Specified grid contains     5 separate shells.
  | Check grid settings after all constraints further below.
  | Found free-atom valence shell :  2 s   2.000
  | Found free-atom valence shell :  2 p   4.000
  | Found free-ion valence shell :  2 s   1.000
  | Found free-ion valence shell :  2 p   3.000
  | Found hydrogenic basis function :  2 p   1.800
  | Found hydrogenic basis function :  3 d   7.600
  | Found hydrogenic basis function :  3 s   6.400
  Species O                   : Missing cutoff potential type.
  Defaulting to exp(1/x)/(1-x)^2 type cutoff potential.
  Species O : No 'logarithmic' tag. Using default grid for free atom:
  | Default logarithmic grid data [bohr] : 0.1000E-03 0.1000E+03 0.1012E+01
  Species O : On-site basis accuracy parameter (for Gram-Schmidt orthonormalisation) not specified.
  Using default value basis_acc =  0.1000000E-03.
  Species O                   : Using default innermost maximum threshold i_radial=  2 for radial functions.
  Species O                   : Default cutoff onset for free atom density etc. : 0.35000000E+01 AA.
  Species O                   : Basic radial grid will be enhanced according to radial_multiplier =   1, to contain    36 grid points.
 
  Finished reading input file 'control.in'.
 
------------------------------------------------------------


------------------------------------------------------------
          Reading geometry description geometry.in.
------------------------------------------------------------
  | The smallest distance between any two atoms is         1.26689494 AA.
  | The first atom of this pair is atom number                      2 .
  | The second atom of this pair is atom number                     6 .
  | Wigner-Seitz cell of the first atom image           0     1     0 .
  | (The Wigner-Seitz cell of the second atom is 0 0 0  by definition.)

  Symmetry information by spglib:
  | Precision set to  0.1E-04
  | Number of Operations  : 8
  | Space group           : 65
  | International         : Cmmm
  | Schoenflies           : D2h^19
  Input structure read successfully.
  The structure contains        6 atoms,  and a total of         76.000 electrons.

  Input geometry:
  | Unit cell:
  |        4.59400000        0.00000000        0.00000000
  |        0.00000000        4.59400000        0.00000000
  |        0.00000000        0.00000000        2.95800000
  | Atomic structure:
  |       Atom                x [A]            y [A]            z [A]
  |    1: Species Ti            0.00000000        0.00000000        0.00000000
  |    2: Species Ti            2.29700000        2.29700000        1.47900000
  |    3: Species O             1.40117000        1.40117000        0.00000000
  |    4: Species O             3.19283000        3.19283000        0.00000000
  |    5: Species O             1.40117000        3.19283000        1.47900000
  |    6: Species O             3.19283000        1.40117000        1.47900000

  Lattice parameters for 3D lattice (in Angstroms) :     4.594000    4.594000    2.958000
  Angle(s) between unit vectors (in degrees)       :    90.000000   90.000000   90.000000


  Quantities derived from the lattice vectors (in Angstrom^-1):
  | Reciprocal lattice vector 1:  1.367694  0.000000  0.000000
  | Reciprocal lattice vector 2:  0.000000  1.367694  0.000000
  | Reciprocal lattice vector 3:  0.000000  0.000000  2.124133
  | Unit cell volume                               :   0.624281E+02  Angstrom^3

  Fractional coordinates:
                         L1                L2                L3
       atom_frac         0.00000000        0.00000000        0.00000000  Ti
       atom_frac         0.50000000        0.50000000        0.50000000  Ti
       atom_frac         0.30500000        0.30500000        0.00000000  O
       atom_frac         0.69500000        0.69500000        0.00000000  O
       atom_frac         0.30500000        0.69500000        0.50000000  O
       atom_frac         0.69500000        0.30500000        0.50000000  O

  Slab Identifier: This seems to be a bulk system.
 
  Finished reading input file 'geometry.in'.
 

 
  Consistency checks for stacksize environment parameter are next.
 
  | Maximum stacksize for task 0: unlimited
  | Maximum stacksize for task 1: unlimited
  | Maximum stacksize for task 2: unlimited
  | Maximum stacksize for task 3: unlimited
  | Maximum stacksize for task 4: unlimited
  | Maximum stacksize for task 5: unlimited
  | Maximum stacksize for task 6: unlimited
  | Maximum stacksize for task 7: unlimited
  | Maximum stacksize for task 8: unlimited
  | Maximum stacksize for task 9: unlimited
  | Maximum stacksize for task 10: unlimited
  | Maximum stacksize for task 11: unlimited
  | Maximum stacksize for task 12: unlimited
  | Maximum stacksize for task 13: unlimited
  | Maximum stacksize for task 14: unlimited
  | Maximum stacksize for task 15: unlimited
  | Maximum stacksize for task 16: unlimited
  | Maximum stacksize for task 17: unlimited
  | Maximum stacksize for task 18: unlimited
  | Maximum stacksize for task 19: unlimited
  | Maximum stacksize for task 20: unlimited
  | Maximum stacksize for task 21: unlimited
  | Maximum stacksize for task 22: unlimited
  | Maximum stacksize for task 23: unlimited
  | Current stacksize for task 0: unlimited
  | Current stacksize for task 1: unlimited
  | Current stacksize for task 2: unlimited
  | Current stacksize for task 3: unlimited
  | Current stacksize for task 4: unlimited
  | Current stacksize for task 5: unlimited
  | Current stacksize for task 6: unlimited
  | Current stacksize for task 7: unlimited
  | Current stacksize for task 8: unlimited
  | Current stacksize for task 9: unlimited
  | Current stacksize for task 10: unlimited
  | Current stacksize for task 11: unlimited
  | Current stacksize for task 12: unlimited
  | Current stacksize for task 13: unlimited
  | Current stacksize for task 14: unlimited
  | Current stacksize for task 15: unlimited
  | Current stacksize for task 16: unlimited
  | Current stacksize for task 17: unlimited
  | Current stacksize for task 18: unlimited
  | Current stacksize for task 19: unlimited
  | Current stacksize for task 20: unlimited
  | Current stacksize for task 21: unlimited
  | Current stacksize for task 22: unlimited
  | Current stacksize for task 23: unlimited
 
  Consistency checks for the contents of control.in are next.
 
  MPI_IN_PLACE appears to work with this MPI implementation.
  | Keeping use_mpi_in_place .true. (see manual).
  Target number of points in a grid batch is not set. Defaulting to  100
  Method for grid partitioning is not set. Defaulting to parallel hash+maxmin partitioning.
  Batch size limit is not set. Defaulting to    200
  By default, will store active basis functions for each batch.
  If in need of memory, prune_basis_once .false. can be used to disable this option.
  communication_type for Hartree potential was not specified.
  Defaulting to calc_hartree .
  Defaulting to Pulay charge density mixer.
  Pulay mixer: Number of relevant iterations not set.
  Defaulting to    8 iterations.
  Pulay mixer: Number of initial linear mixing iterations not set.
  Defaulting to    0 iterations.
  Work space size for distributed Hartree potential not set.
  Defaulting to   0.200000E+03 MB.
  Mixing parameter for charge density mixing has not been set.
  Using default: charge_mix_param =     0.0500.
  The mixing parameter will be adjusted in iteration number     2 of each s.c.f. cycle (i.e., each geometry step).
  Algorithm-dependent basis array size parameters:
  | n_max_pulay                         :        8
  Maximum number of self-consistency iterations not provided.
  Presetting  1000 iterations.
  Presetting      1001 iterations before the initial mixing cycle
  is restarted anyway using the sc_init_iter criterion / keyword.
  Presetting a factor      1.000 between actual scf density residual
  and density convergence criterion sc_accuracy_rho below which sc_init_iter
  takes no effect.
 * No s.c.f. convergence criteria (sc_accuracy_*) were provided in control.in.
 * The run will proceed with a reasonable default guess, but please check whether.
 * the s.c.f. cycles seem to take too much or too little time.
  No maximum number of relaxation steps, defaulting to     1000
  Default initial Hessian is Lindh matrix (thres = 15.00) plus  0.200000E+01 eV/A^2 times unity.
  No maximum energy tolerance for TRM/BFGS moves, defaulting to   0.150000E-02
  Maximum energy tolerance by which TRM/BFGS trajectory may increase over multiple steps:   0.300000E-02
  No harmonic length scale. Defaulting to   0.250000E-01 A.
  No trust radius initializer. Defaulting to   0.200000E+00 A.
  Unit cell relaxation: Unit cell will be relaxed fully.
  Unit cell relaxation: Analytical stress will be used.
  Analytical stress will be computed.
  Analytical stress calculation: Only the upper triangle is calculated.
                                 Final output is symmetrized.
  Analytical stress calculation: scf convergence accuracy of stress not set.
                                 Analytical stress self-consistency will not be checked explicitly.
                                 Be sure to set other criteria like sc_accuracy_rho tight enough.
  Forces evaluation will include force correction term due to incomplete self-consistency (default).
 * Notice: The s.c.f. convergence criterion sc_accuracy_rho was not provided.
 * We used to stop in this case, and ask the user to provide reasonable
 * scf convergence criteria. However, this led some users to employ criteria
 * that led to extremely long run times, e.g., for simple relaxation.
 * We now preset a default value for sc_accuracy_rho if it is not set.
 * You may still wish to check if this setting is too tight or too loose for your needs.
 * Based on n_atoms and forces and force-correction status, FHI-aims chose sc_accuracy_rho =  0.100000E-05 .
  Force calculation: scf convergence accuracy of forces not set.
  Defaulting to 'sc_accuracy_forces not_checked'.
  Handling of forces: Unphysical translation and rotation will be removed from forces.
  No accuracy limit for integral partition fn. given. Defaulting to  0.1000E-14.
  No threshold value for u(r) in integrations given. Defaulting to  0.1000E-05.
  No occupation type (smearing scheme) given. Defaulting to Gaussian broadening, width =  0.1000E-01 eV.
  The width will be adjusted in iteration number     2 of each s.c.f. cycle (i.e., each geometry step).
  No accuracy for occupation numbers given. Defaulting to  0.1000E-12.
  No threshold value for occupation numbers given. Defaulting to  0.0000E+00.
  No accuracy for fermi level given. Defaulting to  0.1000E-19.
  Maximum # of iterations to find E_F not set. Defaulting to  200.
  Preferred method for the eigenvalue solver ('KS_method') not specified in 'control.in'.
  Calling BLACS routine to test compilation state
  Since ScaLAPACK support is enabled, defaulting to ELPA (via ELSI).
  Will not use alltoall communication since running on < 1024 CPUs.
  Threshold for basis singularities not set.
  Default threshold for basis singularities:  0.1000E-04
  partition_type (choice of integration weights) for integrals was not specified.
  | Using a version of the partition function of Stratmann and coworkers ('stratmann_sparse').
  | At each grid point, the set of atoms used to build the partition table is smoothly restricted to
  | only those atoms whose free-atom density would be non-zero at that grid point.
  Partitioning for Hartree potential was not defined. Using partition_type for integrals.
  | Adjusted default value of keyword multip_moments_threshold to:       0.10000000E-11
  | This value may affect high angular momentum components of the Hartree potential in periodic systems.
  Spin handling was not defined in control.in. Defaulting to unpolarized case.
  No q(lm)/r^(l+1) cutoff set for long-range Hartree potential.
  | Using default value of  0.100000E-09 .
  | Verify using the multipole_threshold keyword.
  Defaulting to new monopole extrapolation.
  Density update method: automatic selection selected.
  Using density matrix based charge density update.
  Using density matrix based charge density update.
  Using packed matrix style: index .
  Geometry relaxation: A file "geometry.in.next_step" is written out by default after each step.
  | This file contains the geometry of the current relaxation step as well as
  | the current Hessian matrix needed to restart the relaxation algorithm.
  | If you do not want part or all of this information, use the keywords
  | "write_restart_geometry" or "hessian_to_restart_geometry" to switch the output off.
  Defaulting to use time-reversal symmetry for k-point grid.
  Charge integration errors on the 3D integration grid will be compensated
  by explicit normalization and distribution of residual charges.
  Use the "compensate_multipole_errors" flag to change this behaviour.
  Found no potential conflicts with setting 'use_local_index' for this calculation.
  Flag 'use_local_index' has not been set.
  Testing whether we classify this calculation as large-scale ...
  The calculation contains less than 100 atoms. This is most likely not a large-scale calculation.
  Not setting 'use_local_index'.
 
  Consistency checks for the contents of geometry.in are next.
 

  Range separation radius for Ewald summation (hartree_convergence_parameter):      3.02465203 bohr.
  Number of empty states per atom not set in control.in - providing a guess from actual geometry.
  | Total number of empty states used during s.c.f. cycle:       23
  If you use a very high smearing, use empty_states (per atom!) in control.in to increase this value.

  Structure-dependent array size parameters: 
  | Maximum number of distinct radial functions  :       17
  | Maximum number of basis functions            :      118
  | Number of Kohn-Sham states (occupied + empty):       61
------------------------------------------------------------
  After read_input_data [GB]:   1045.70

  Performing system and environment tests:
  *** Environment variable OMP_NUM_THREADS is not set
  *** For performance reasons you might want to set it to 1
  | Checking for ScaLAPACK...
  | Testing pdtran()...
  | All pdtran() tests passed.
  After prepare_system [GB]:   1045.57

------------------------------------------------------------
          Preparing all fixed parts of the calculation.
------------------------------------------------------------
  Determining machine precision:
    2.225073858507201E-308
  Setting up grids for atomic and cluster calculations.

  Creating wave function, potential, and density for free atoms.
  Runtime choices for atomic solver:
  | atomic solver xc        : PBE
  | compute density gradient: 1
  | compute kinetic density : F

  Species: Ti

  List of occupied orbitals and eigenvalues:
    n    l              occ      energy [Ha]    energy [eV]
    1    0           2.0000      -179.959082     -4896.9358
    2    0           2.0000       -19.727662      -536.8170
    3    0           2.0000        -2.283029       -62.1244
    4    0           2.0000        -0.148384        -4.0377
    2    1           6.0000       -16.317278      -444.0157
    3    1           6.0000        -1.409348       -38.3503
    3    2           2.0000        -0.139340        -3.7916


  Species: O

  List of occupied orbitals and eigenvalues:
    n    l              occ      energy [Ha]    energy [eV]
    1    0           2.0000       -18.926989      -515.0296
    2    0           2.0000        -0.880247       -23.9527
    2    1           4.0000        -0.331514        -9.0210


  Adding cutoff potential to free-atom effective potential.
  Creating fixed part of basis set: Ionic, confined, hydrogenic.
 
  Ti                   ion:

  List of free ionic orbitals and eigenvalues:
    n    l      energy [Ha]    energy [eV]
    1    0      -180.819616     -4920.3521
    2    0       -20.608761      -560.7929
    3    0        -3.115729       -84.7833
    4    0        -0.697188       -18.9715
    2    1       -17.196209      -467.9327
    3    1        -2.231296       -60.7167
    3    2        -0.911363       -24.7995


  List of ionic basis orbitals and eigenvalues:
    n    l      energy [Ha]    energy [eV]    outer radius [A]
    4    1        -0.517739       -14.0884       4.592117
    4    0        -0.696824       -18.9615       4.536321

 
  Ti                   hydrogenic:
 
  List of hydrogenic basis orbitals: 
    n    l      effective z      eigenvalue [eV]  inner max. [A]     outer max. [A]     outer radius [A]   
    4    3         8.000000       -54.4222           1.059019           1.059019           4.267343
    3    2         2.700000       -10.7798           1.726925           1.726925           4.592117
 
 
  O                    hydrogenic:
 
  List of hydrogenic basis orbitals: 
    n    l      effective z      eigenvalue [eV]  inner max. [A]     outer max. [A]     outer radius [A]   
    2    1         1.800000       -10.9749           1.164242           1.164242           4.578029
    3    2         7.600000       -87.3180           0.624125           0.624125           3.251020
    3    0         6.400000       -61.9207           0.061167           1.081902           4.001998
 
  Creating atomic-like basis functions for current effective potential.

  Species Ti                  :

  List of atomic basis orbitals and eigenvalues:
    n    l      energy [Ha]    energy [eV]    outer radius [A]
    1    0      -179.959082     -4896.9358       0.490254
    2    0       -19.727662      -536.8170       1.491292
    3    0        -2.283029       -62.1244       4.014314
    4    0        -0.148384        -4.0377       4.592117
    2    1       -16.317278      -444.0157       1.585290
    3    1        -1.409348       -38.3503       4.267343
    3    2        -0.139340        -3.7916       4.536321


  Species O                   :

  List of atomic basis orbitals and eigenvalues:
    n    l      energy [Ha]    energy [eV]    outer radius [A]
    1    0       -18.926989      -515.0296       1.415765
    2    0        -0.880247       -23.9527       4.413171
    2    1        -0.331514        -9.0210       4.522403

  Assembling full basis from fixed parts.
  | Species Ti :   atomic orbital   1 s accepted.
  | Species Ti :   atomic orbital   2 s accepted.
  | Species Ti :   atomic orbital   3 s accepted.
  | Species Ti :    ionic orbital   4 s accepted.
  | Species Ti :   atomic orbital   4 s accepted.
  | Species Ti :   atomic orbital   2 p accepted.
  | Species Ti :   atomic orbital   3 p accepted.
  | Species Ti :    ionic orbital   4 p accepted.
  | Species Ti :   atomic orbital   3 d accepted.
  | Species Ti :    hydro orbital   3 d accepted.
  | Species Ti :    hydro orbital   4 f accepted.
  | Species O :   atomic orbital   1 s accepted.
  | Species O :    hydro orbital   3 s accepted.
  | Species O :   atomic orbital   2 s accepted.
  | Species O :   atomic orbital   2 p accepted.
  | Species O :    hydro orbital   2 p accepted.
  | Species O :    hydro orbital   3 d accepted.
 
  Basis size parameters after reduction:
  | Total number of radial functions:       17
  | Total number of basis functions :      118
 
  Per-task memory consumption for arrays in subroutine allocate_ext:
  |           6.022728MB.
  Testing on-site integration grid accuracy.
  |  Species  Function  <phi|h_atom|phi> (log., in eV)  <phi|h_atom|phi> (rad., in eV)
           1        1              -4896.9357674450              -4896.9322830202
           1        2               -536.8170048508               -536.8169722333
           1        3                -62.1243896260                -62.1243889283
           1        4                 -3.2653235630                 -3.2692838808
           1        5                  6.7987747276                  6.5460721883 ***
           1        6               -444.0157161949               -444.0157165810
           1        7                -38.3503235548                -38.3503234963
           1        8                  0.2923930877                  0.2745948116
           1        9                 -3.7933400649                 -3.7959244177
           1       10                  6.3288803616                  6.2510614929 ***
           1       11                 27.8451455747                 27.8452636416
           2       12               -515.0295626295               -515.0294562738
           2       13                 15.1698434419                 15.1699322204
           2       14                -21.6038822678                -21.6039118105
           2       15                 -9.0211123393                 -9.0212703513
           2       16                  8.3047696391                  8.2854840999
           2       17                 45.8428042125                 45.8427461222
 * Note: Onsite integrals marked "***" above are less accurate than
 * onsite_accuracy_threshold =    0.03000 eV. Usually, this is harmless.
 * When in doubt, tighten the "radial" and/or "radial_multiplier" flags to check.

  Preparing densities etc. for the partition functions (integrals / Hartree potential).

  Preparations completed.
  max(cpu_time)          :      0.208 s.
  Wall clock time (cpu1) :      0.206 s.
------------------------------------------------------------
  After prepare_scf [GB]:   1045.18

  Initializing index lists of integration centers etc. from given atomic structure:
  Mapping all atomic coordinates to central unit cell.

  Initializing the k-points
  Using symmetry for reducing the k-points
  | k-points reduced from:        8 to        8
  | Number of k-points                             :         8
  The eigenvectors in the calculations are REAL.
  | Number of basis functions in the Hamiltonian integrals :      2803
  | Number of basis functions in a single unit cell        :       118
  | Number of centers in hartree potential         :      1194
  | Number of centers in hartree multipole         :       795
  | Number of centers in electron density summation:       568
  | Number of centers in basis integrals           :       613
  | Number of centers in integrals                 :       197
  | Number of centers in hamiltonian               :       582
  | Consuming         17 KiB for k_phase.
  | Number of super-cells (origin) [n_cells]                     :         891
  | Number of super-cells (after PM_index) [n_cells]             :         142
  | Number of super-cells in hamiltonian [n_cells_in_hamiltonian]:         142
  | Size of matrix packed + index [n_hamiltonian_matrix_size] :      272239
  After initialize_bc_dependent_lists [GB]:   1045.13

------------------------------------------------------------
          Begin self-consistency loop: Initialization.

          Date     :  20240710, Time     :  232458.864
------------------------------------------------------------

  Initializing relaxation algorithms.
  Finished initialization of distributed Hessian storage.
  | Global dimension:        27
  | BLACS block size:         2
  | Number of workers:       14

  Available memory per node after initialize_hartree_non_periodic_ewald [GB]:   1045.13
  | Estimated reciprocal-space cutoff momentum G_max:         3.12346377 bohr^-1 .
  | Reciprocal lattice points for long-range Hartree potential:     208
  Available memory per node after initialize_recip_hartree_potential [GB]:   1045.13
  Using simple linear distribution as default method for k-point parallelism.
  * Using 24 tasks for Scalapack Eigenvalue solver.
  Detailed listing of tasks and assigned k-points:
   Task     0 k-point     1 on RSL-arvutus
   Task     1 k-point     1 on RSL-arvutus
   Task     2 k-point     1 on RSL-arvutus
   Task     3 k-point     2 on RSL-arvutus
   Task     4 k-point     2 on RSL-arvutus
   Task     5 k-point     2 on RSL-arvutus
   Task     6 k-point     3 on RSL-arvutus
   Task     7 k-point     3 on RSL-arvutus
   Task     8 k-point     3 on RSL-arvutus
   Task     9 k-point     4 on RSL-arvutus
   Task    10 k-point     4 on RSL-arvutus
   Task    11 k-point     4 on RSL-arvutus
   Task    12 k-point     5 on RSL-arvutus
   Task    13 k-point     5 on RSL-arvutus
   Task    14 k-point     5 on RSL-arvutus
   Task    15 k-point     6 on RSL-arvutus
   Task    16 k-point     6 on RSL-arvutus
   Task    17 k-point     6 on RSL-arvutus
   Task    18 k-point     7 on RSL-arvutus
   Task    19 k-point     7 on RSL-arvutus
   Task    20 k-point     7 on RSL-arvutus
   Task    21 k-point     8 on RSL-arvutus
   Task    22 k-point     8 on RSL-arvutus
   Task    23 k-point     8 on RSL-arvutus
  K-point:     1 Tasks:     3 split into      3 X      1 BLACS grid
  Calculating block size based on n_basis =          118  max_nprow =            3  max_npcol =            1
  ScaLAPACK block size set to:           16
  Allocating        0.043 MB for ovlp
  Allocating        0.043 MB for ham
  Allocating        0.043 MB for eigenvec
  Required Scalapack workspace - INTEGER:            1  REAL:             1
  Available memory per node after initialize_scalapack [GB]:   1045.13
  Available memory per node after aims_elsi_init_scf [GB]:   1045.13
  Available memory per node after initialize_fixed_grids [GB]:   1045.13
  Partitioning the integration grid into batches with parallel hashing+maxmin method.
  | Number of batches:      491
  | Maximal batch size:     115
  | Minimal batch size:      56
  | Average batch size:      78.061
  | Standard deviation of batch sizes:      12.658

  Integration load balanced across    24 MPI tasks.
  Work distribution over tasks is as follows:
  Task     0 has       1555 integration points.
  Task     1 has       1631 integration points.
  Task     2 has       1641 integration points.
  Task     3 has       1562 integration points.
  Task     4 has       1603 integration points.
  Task     5 has       1544 integration points.
  Task     6 has       1554 integration points.
  Task     7 has       1570 integration points.
  Task     8 has       1625 integration points.
  Task     9 has       1616 integration points.
  Task    10 has       1603 integration points.
  Task    11 has       1596 integration points.
  Task    12 has       1616 integration points.
  Task    13 has       1561 integration points.
  Task    14 has       1631 integration points.
  Task    15 has       1564 integration points.
  Task    16 has       1606 integration points.
  Task    17 has       1619 integration points.
  Task    18 has       1604 integration points.
  Task    19 has       1618 integration points.
  Task    20 has       1565 integration points.
  Task    21 has       1611 integration points.
  Task    22 has       1611 integration points.
  Task    23 has       1622 integration points.
  Available memory per node after partition_grid [GB]:   1045.13
  Initializing partition tables, free-atom densities, potentials, etc. across the integration grid (initialize_grid_storage).
  | initialize_grid_storage: Actual outermost partition radius vs. multipole_radius_free
  | (-- VB: in principle, multipole_radius_free should be larger, hence this output)
  | Species        1: Confinement radius =              4.999999999999999 AA, multipole_radius_free =              5.002391649902235 AA.
  | Species        1: outer_partition_radius set to              5.002391649902235 AA .
  | Species        2: Confinement radius =              4.999999999999999 AA, multipole_radius_free =              5.048384829883283 AA.
  | Species        2: outer_partition_radius set to              5.048384829883283 AA .
  | The sparse table of interatomic distances needs       1595.53 kbyte instead of      3006.15 kbyte of memory.
  | Net number of integration points:    38328
  | of which are non-zero points    :    31144
  | Numerical average free-atom electrostatic potential    :    -18.17617952 eV
  Available memory per node after initialize_grid_storage_p1 [GB]:   1045.09
  Renormalizing the initial density to the exact electron count on the 3D integration grid.
  | Initial density: Formal number of electrons (from input files) :      76.0000000000
  | Integrated number of electrons on 3D grid     :      75.9997063041
  | Charge integration error                      :      -0.0002936959
  | Normalization factor for density and gradient :       1.0000038644
  Renormalizing the free-atom superposition density to the exact electron count on the 3D integration grid.
  | Formal number of electrons (from input files) :      76.0000000000
  | Integrated number of electrons on 3D grid     :      75.9997063041
  | Charge integration error                      :      -0.0002936959
  | Normalization factor for density and gradient :       1.0000038644
  Obtaining max. number of non-zero basis functions in each batch (get_n_compute_maxes).
  | Maximal number of non-zero basis functions:      871 in task     0
  | Maximal number of non-zero basis functions:      846 in task     1
  | Maximal number of non-zero basis functions:      865 in task     2
  | Maximal number of non-zero basis functions:      882 in task     3
  | Maximal number of non-zero basis functions:      830 in task     4
  | Maximal number of non-zero basis functions:      805 in task     5
  | Maximal number of non-zero basis functions:      784 in task     6
  | Maximal number of non-zero basis functions:      816 in task     7
  | Maximal number of non-zero basis functions:      806 in task     8
  | Maximal number of non-zero basis functions:      838 in task     9
  | Maximal number of non-zero basis functions:      876 in task    10
  | Maximal number of non-zero basis functions:      837 in task    11
  | Maximal number of non-zero basis functions:      836 in task    12
  | Maximal number of non-zero basis functions:      804 in task    13
  | Maximal number of non-zero basis functions:      857 in task    14
  | Maximal number of non-zero basis functions:      859 in task    15
  | Maximal number of non-zero basis functions:      902 in task    16
  | Maximal number of non-zero basis functions:      895 in task    17
  | Maximal number of non-zero basis functions:      883 in task    18
  | Maximal number of non-zero basis functions:      895 in task    19
  | Maximal number of non-zero basis functions:      877 in task    20
  | Maximal number of non-zero basis functions:      817 in task    21
  | Maximal number of non-zero basis functions:      813 in task    22
  | Maximal number of non-zero basis functions:      890 in task    23
  Available memory per node after get_n_compute_maxes_p1 [GB]:   1045.08
  Available memory per node after allocate_matrices [GB]:   1045.08
  Available memory per node after init_comm_sparse_local_matrix_scalapack [GB]:   1045.08
  Integrating Hamiltonian matrix: batch-based integration.
  Time summed over all CPUs for integration: real work        2.570 s, elapsed        2.701 s
  Available memory per node after integrate hamiltonian matrix [GB]:   1044.81
  Integrating overlap matrix.
  Time summed over all CPUs for integration: real work        1.734 s, elapsed        1.837 s
  Available memory per node after integrate ovlp matrix [GB]:   1044.72
  Available memory per node after ASI_callbacks invoke [GB]:   1044.72
  Deallocating overlap matrix.
  Available memory per node after save_overlap_scalapack [GB]:   1044.72

  Updating Kohn-Sham eigenvalues and eigenvectors using ELSI and the ELPA eigensolver.
  Singularity check in k-point 1 (analysis for other k-points may follow below):
  Overlap matrix is not singular
  | Lowest and highest eigenvalues :  0.1684E-03,  0.8134E+01
  Finished singularity check of overlap matrix
  | Time :     0.003 s
  Starting ELPA eigensolver
  Finished Cholesky decomposition
  | Time :     0.007 s
  Finished transformation to standard eigenproblem
  | Time :     0.001 s
  Finished solving standard eigenproblem
  | Time :     0.002 s
  Finished back-transformation of eigenvectors
  | Time :     0.000 s

  Obtaining occupation numbers and electronic chemical potential using ELSI.
  | Note that, for insulating systems, the printed 'chemical potential' value is not uniquely defined.
  | It can be anywhere in the energy gap, as long as it correctly separates occupied and unoccupied states.
  | In systems with a gap, the physically relevant chemical potential is the VBM or HOMO.

  | Chemical potential (Fermi level):    -7.16234501 eV
  Available memory per node after advance_KS_solution [GB]:   1044.71
  Writing Kohn-Sham eigenvalues.
  K-point:       1 at    0.000000    0.000000    0.000000 (in units of recip. lattice)

  State    Occupation    Eigenvalue [Ha]    Eigenvalue [eV]
      1       2.00000        -180.020698        -4898.61244
      2       2.00000        -179.964873        -4897.09335
      3       2.00000         -19.795616         -538.66611
      4       2.00000         -19.734063         -536.99117
      5       2.00000         -19.195684         -522.34114
      6       2.00000         -19.195682         -522.34108
      7       2.00000         -19.041045         -518.13320
      8       2.00000         -19.041045         -518.13320
      9       2.00000         -16.389407         -445.97845
     10       2.00000         -16.381593         -445.76582
     11       2.00000         -16.381262         -445.75683
     12       2.00000         -16.323673         -444.18973
     13       2.00000         -16.323617         -444.18822
     14       2.00000         -16.323419         -444.18284
     15       2.00000          -2.471608          -67.25587
     16       2.00000          -2.297986          -62.53137
     17       2.00000          -1.855859          -50.50048
     18       2.00000          -1.530631          -41.65059
     19       2.00000          -1.526612          -41.54122
     20       2.00000          -1.437306          -39.11107
     21       2.00000          -1.423923          -38.74691
     22       2.00000          -1.420578          -38.65588
     23       2.00000          -1.150697          -31.31205
     24       2.00000          -1.067788          -29.05600
     25       2.00000          -1.014237          -27.59878
     26       2.00000          -0.921336          -25.07082
     27       2.00000          -0.714068          -19.43078
     28       2.00000          -0.683026          -18.58608
     29       2.00000          -0.675788          -18.38912
     30       2.00000          -0.583437          -15.87614
     31       2.00000          -0.546937          -14.88291
     32       2.00000          -0.546589          -14.87344
     33       2.00000          -0.534627          -14.54794
     34       2.00000          -0.469453          -12.77445
     35       2.00000          -0.469415          -12.77343
     36       2.00000          -0.461530          -12.55887
     37       2.00000          -0.457161          -12.43999
     38       2.00000          -0.269207           -7.32550
     39       0.00000          -0.251762           -6.85079
     40       0.00000          -0.223124           -6.07151
     41       0.00000          -0.168691           -4.59030
     42       0.00000          -0.150893           -4.10601
     43       0.00000          -0.146186           -3.97793
     44       0.00000          -0.141091           -3.83927
     45       0.00000          -0.075126           -2.04429
     46       0.00000          -0.070598           -1.92107
     47       0.00000          -0.058823           -1.60066
     48       0.00000          -0.044349           -1.20679
     49       0.00000           0.079664            2.16776
     50       0.00000           0.083687            2.27725
     51       0.00000           0.085682            2.33152
     52       0.00000           0.165040            4.49097
     53       0.00000           0.236182            6.42684
     54       0.00000           0.290807            7.91325
     55       0.00000           0.312049            8.49128
     56       0.00000           0.370841           10.09111
     57       0.00000           0.418531           11.38881
     58       0.00000           0.615074           16.73702
     59       0.00000           0.676983           18.42165
     60       0.00000           0.693537           18.87211
     61       0.00000           0.696407           18.95020

  What follows are estimated values for band gap, HOMO, LUMO, etc.
  | They are estimated on a discrete k-point grid and not necessarily exact.
  | For converged numbers, create a DOS and/or band structure plot on a denser k-grid.

  Highest occupied state (VBM) at     -7.32550425 eV (relative to internal zero)
  | Occupation number:      2.00000000
  | K-point:       1 at    0.000000    0.000000    0.000000 (in units of recip. lattice)

  Lowest unoccupied state (CBM) at    -7.07295186 eV (relative to internal zero)
  | Occupation number:      0.00000000
  | K-point:       7 at    0.500000    0.500000    0.000000 (in units of recip. lattice)

  ESTIMATED overall HOMO-LUMO gap:      0.25255239 eV between HOMO at k-point 1 and LUMO at k-point 7
  | This appears to be an indirect band gap.
  | Smallest direct gap :      0.30390560 eV for k_point 7 at    0.500000    0.500000    0.000000 (in units of recip. lattice)
  The gap value is above 0.2 eV. Unless you are using a very sparse k-point grid,
  this system is most likely an insulator or a semiconductor.
  Calculating total energy contributions from superposition of free atom densities.

  Total energy components:
  | Sum of eigenvalues            :       -1197.39250402 Ha      -32582.70782435 eV
  | XC energy correction          :        -118.68850972 Ha       -3229.67867373 eV
  | XC potential correction       :         153.49934545 Ha        4176.92970959 eV
  | Free-atom electrostatic energy:        -850.80121301 Ha      -23151.47894030 eV
  | Hartree energy correction     :           0.00000000 Ha           0.00000000 eV
  | Entropy correction            :          -0.00000000 Ha          -0.00000000 eV
  | ---------------------------
  | Total energy                  :       -2013.38288130 Ha      -54786.93572879 eV
  | Total energy, T -> 0          :       -2013.38288130 Ha      -54786.93572879 eV  <-- do not rely on this value for anything but (periodic) metals
  | Electronic free energy        :       -2013.38288130 Ha      -54786.93572879 eV

  Derived energy quantities:
  | Kinetic energy                :        2028.75809625 Ha       55205.31661458 eV
  | Electrostatic energy          :       -3923.45246783 Ha     -106762.57366964 eV
  | Energy correction for multipole
  | error in Hartree potential    :           0.00000000 Ha           0.00000000 eV
  | Sum of eigenvalues per atom                           :       -5430.45130406 eV
  | Total energy (T->0) per atom                          :       -9131.15595480 eV  <-- do not rely on this value for anything but (periodic) metals
  | Electronic free energy per atom                       :       -9131.15595480 eV
  Initialize hartree_potential_storage
  Max. number of atoms included in rho_multipole:            6

  End scf initialization - timings             :  max(cpu_time)    wall_clock(cpu1)
  | Time for scf. initialization                :        0.334 s           0.340 s
  | Boundary condition initialization           :        0.027 s           0.026 s
  | Relaxation initialization                   :        0.005 s           0.005 s
  | Integration                                 :        0.207 s           0.207 s
  | Solution of K.-S. eqns.                     :        0.009 s           0.016 s
  | Grid partitioning                           :        0.016 s           0.015 s
  | Preloading free-atom quantities on grid     :        0.085 s           0.085 s
  | Free-atom superposition energy              :        0.009 s           0.009 s
  | Total energy evaluation                     :        0.000 s           0.000 s

  Partial memory accounting:
  | Current value for overall tracked memory usage:
  |   Minimum:        3.252 MB (on task 14)
  |   Maximum:        3.295 MB (on task  0)
  |   Average:        3.272 MB
  | Peak value for overall tracked memory usage:
  |   Minimum:       12.143 MB (on task  6 after allocating wave)
  |   Maximum:       13.947 MB (on task 16 after allocating wave)
  |   Average:       13.116 MB
  | Largest tracked array allocation so far:
  |   Minimum:        4.689 MB (hamiltonian_shell on task  6)
  |   Maximum:        6.207 MB (hamiltonian_shell on task 16)
  |   Average:        5.512 MB
  Note:  These values currently only include a subset of arrays which are explicitly tracked.
  The "true" memory usage will be greater.
------------------------------------------------------------
  Available memory after initialize_scf [GB]:   1044.71
  Available memory after allocating mixing [GB]:   1044.71
  Evaluating new KS density using the density matrix
  Evaluating density matrix
  Finished density matrix calculation
  | Time :     0.001 s
  Time summed over all CPUs for getting density from density matrix: real work        5.338 s, elapsed        5.704 s
  Integration grid: deviation in total charge (<rho> - N_e) =   0.000000E+00

  Time for density update prior                :  max(cpu_time)    wall_clock(cpu1)
  | self-consistency iterative process          :        0.241 s           0.241 s
  Available memory before start of SCF loop [GB]:   1044.61

------------------------------------------------------------
          Begin self-consistency iteration #    1

  Date     :  20240710, Time     :  232459.445
------------------------------------------------------------
  Pulay mixing of updated and previous charge densities.
  Available memory per node after mixing [GB]:   1044.61
  Renormalizing the density to the exact electron count on the 3D integration grid.
  | Formal number of electrons (from input files) :      76.0000000000
  | Integrated number of electrons on 3D grid     :      76.0000000000
  | Charge integration error                      :       0.0000000000
  | Normalization factor for density and gradient :       1.0000000000

  Evaluating partitioned Hartree potential by multipole expansion.
  | Original multipole sum: apparent total charge =   0.121144E-12
  | Sum of charges compensated after spline to logarithmic grids =   0.221369E-06
  | Analytical far-field extrapolation by fixed multipoles:
  | Hartree multipole sum: apparent total charge =   0.121033E-12
  Summing up the Hartree potential.
  Time summed over all CPUs for potential: real work        0.023 s, elapsed        0.024 s
  | RMS charge density error from multipole expansion :   0.147908E-02
  | Average real-space part of the electrostatic potential :      0.09508964 eV

  Integrating Hamiltonian matrix: batch-based integration.
  Time summed over all CPUs for integration: real work        2.521 s, elapsed        2.663 s

  Updating Kohn-Sham eigenvalues and eigenvectors using ELSI and the ELPA eigensolver.
  Starting ELPA eigensolver
  Finished transformation to standard eigenproblem
  | Time :     0.000 s
  Finished solving standard eigenproblem
  | Time :     0.002 s
  Finished back-transformation of eigenvectors
  | Time :     0.000 s

  Obtaining occupation numbers and electronic chemical potential using ELSI.
  | Note that, for insulating systems, the printed 'chemical potential' value is not uniquely defined.
  | It can be anywhere in the energy gap, as long as it correctly separates occupied and unoccupied states.
  | In systems with a gap, the physically relevant chemical potential is the VBM or HOMO.

  | Chemical potential (Fermi level):    -6.78515847 eV
  Writing Kohn-Sham eigenvalues.
  K-point:       1 at    0.000000    0.000000    0.000000 (in units of recip. lattice)

  State    Occupation    Eigenvalue [Ha]    Eigenvalue [eV]
      1       2.00000        -180.024661        -4898.72027
      2       2.00000        -179.991821        -4897.82665
      3       2.00000         -19.792049         -538.56905
      4       2.00000         -19.770176         -537.97385
      5       2.00000         -19.142184         -520.88534
      6       2.00000         -19.142183         -520.88530
      7       2.00000         -18.997191         -516.93988
      8       2.00000         -18.997191         -516.93988
      9       2.00000         -16.382048         -445.77820
     10       2.00000         -16.381848         -445.77277
     11       2.00000         -16.381791         -445.77121
     12       2.00000         -16.362905         -445.25731
     13       2.00000         -16.356053         -445.07085
     14       2.00000         -16.355813         -445.06431
     15       2.00000          -2.448545          -66.62829
     16       2.00000          -2.341243          -63.70847
     17       2.00000          -1.828052          -49.74382
     18       2.00000          -1.511104          -41.11925
     19       2.00000          -1.505620          -40.97001
     20       2.00000          -1.476138          -40.16777
     21       2.00000          -1.465319          -39.87337
     22       2.00000          -1.463338          -39.81946
     23       2.00000          -1.123873          -30.58213
     24       2.00000          -1.046682          -28.48166
     25       2.00000          -0.993432          -27.03267
     26       2.00000          -0.901472          -24.53030
     27       2.00000          -0.691481          -18.81616
     28       2.00000          -0.657599          -17.89419
     29       2.00000          -0.656206          -17.85627
     30       2.00000          -0.567516          -15.44290
     31       2.00000          -0.521927          -14.20234
     32       2.00000          -0.521756          -14.19770
     33       2.00000          -0.513689          -13.97818
     34       2.00000          -0.449263          -12.22508
     35       2.00000          -0.448606          -12.20720
     36       2.00000          -0.438648          -11.93623
     37       2.00000          -0.437602          -11.90776
     38       2.00000          -0.271071           -7.37622
     39       0.00000          -0.244101           -6.64234
     40       0.00000          -0.218838           -5.95487
     41       0.00000          -0.189036           -5.14392
     42       0.00000          -0.175868           -4.78562
     43       0.00000          -0.175565           -4.77736
     44       0.00000          -0.161524           -4.39529
     45       0.00000          -0.074706           -2.03286
     46       0.00000          -0.064877           -1.76538
     47       0.00000          -0.048209           -1.31184
     48       0.00000          -0.029344           -0.79848
     49       0.00000           0.079637            2.16703
     50       0.00000           0.081362            2.21396
     51       0.00000           0.088558            2.40979
     52       0.00000           0.170057            4.62747
     53       0.00000           0.232759            6.33369
     54       0.00000           0.294357            8.00987
     55       0.00000           0.321531            8.74931
     56       0.00000           0.376535           10.24603
     57       0.00000           0.407176           11.07983
     58       0.00000           0.634240           17.25854
     59       0.00000           0.689249           18.75542
     60       0.00000           0.705882           19.20803
     61       0.00000           0.715909           19.48087

  What follows are estimated values for band gap, HOMO, LUMO, etc.
  | They are estimated on a discrete k-point grid and not necessarily exact.
  | For converged numbers, create a DOS and/or band structure plot on a denser k-grid.

  Highest occupied state (VBM) at     -6.91476881 eV (relative to internal zero)
  | Occupation number:      2.00000000
  | K-point:       4 at    0.000000    0.500000    0.500000 (in units of recip. lattice)

  Lowest unoccupied state (CBM) at    -6.70706595 eV (relative to internal zero)
  | Occupation number:      0.00000000
  | K-point:       7 at    0.500000    0.500000    0.000000 (in units of recip. lattice)

  ESTIMATED overall HOMO-LUMO gap:      0.20770286 eV between HOMO at k-point 4 and LUMO at k-point 7
  | This appears to be an indirect band gap.
  | Smallest direct gap :      0.73388266 eV for k_point 1 at    0.000000    0.000000    0.000000 (in units of recip. lattice)
  The gap value is above 0.2 eV. Unless you are using a very sparse k-point grid,
  this system is most likely an insulator or a semiconductor.

  Total energy components:
  | Sum of eigenvalues            :       -1196.81711465 Ha      -32567.05068283 eV
  | XC energy correction          :        -118.77031558 Ha       -3231.90472433 eV
  | XC potential correction       :         153.60475359 Ha        4179.79801101 eV
  | Free-atom electrostatic energy:        -850.80121301 Ha      -23151.47894030 eV
  | Hartree energy correction     :          -0.45253939 Ha         -12.31422331 eV
  | Entropy correction            :          -0.00000000 Ha          -0.00000000 eV
  | ---------------------------
  | Total energy                  :       -2013.23642903 Ha      -54782.95055976 eV
  | Total energy, T -> 0          :       -2013.23642903 Ha      -54782.95055976 eV  <-- do not rely on this value for anything but (periodic) metals
  | Electronic free energy        :       -2013.23642903 Ha      -54782.95055976 eV

  Derived energy quantities:
  | Kinetic energy                :        2029.47905616 Ha       55224.93493174 eV
  | Electrostatic energy          :       -3923.94516961 Ha     -106775.98076717 eV
  | Energy correction for multipole
  | error in Hartree potential    :           0.00151178 Ha           0.04113774 eV
  | Sum of eigenvalues per atom                           :       -5427.84178047 eV
  | Total energy (T->0) per atom                          :       -9130.49175996 eV  <-- do not rely on this value for anything but (periodic) metals
  | Electronic free energy per atom                       :       -9130.49175996 eV
  Evaluating new KS density using the density matrix
  Evaluating density matrix
  Finished density matrix calculation
  | Time :     0.000 s
  Time summed over all CPUs for getting density from density matrix: real work        5.215 s, elapsed        5.549 s
  Integration grid: deviation in total charge (<rho> - N_e) =   1.421085E-14

  Self-consistency convergence accuracy:
  | Change of charge density      :  0.8517E+00
  | Change of unmixed KS density  :  0.7221E+02
  | Change of sum of eigenvalues  :  0.1566E+02 eV
  | Change of total energy        :  0.3985E+01 eV


------------------------------------------------------------
  End self-consistency iteration #     1       :  max(cpu_time)    wall_clock(cpu1)
  | Time for this iteration                     :        0.381 s           0.381 s
  | Charge density update                       :        0.235 s           0.235 s
  | Density mixing                              :        0.000 s           0.001 s
  | Hartree multipole update                    :        0.001 s           0.000 s
  | Hartree multipole summation                 :        0.026 s           0.027 s
  | Integration                                 :        0.115 s           0.114 s
  | Solution of K.-S. eqns.                     :        0.003 s           0.003 s
  | Total energy evaluation                     :        0.000 s           0.000 s

  Partial memory accounting:
  | Current value for overall tracked memory usage:
  |   Minimum:        4.112 MB (on task  5)
  |   Maximum:        4.195 MB (on task  9)
  |   Average:        4.161 MB
  | Peak value for overall tracked memory usage:
  |   Minimum:       12.977 MB (on task  6 after allocating gradient_basis_wave)
  |   Maximum:       15.118 MB (on task 16 after allocating gradient_basis_wave)
  |   Average:       14.145 MB
  | Largest tracked array allocation so far:
  |   Minimum:        4.689 MB (hamiltonian_shell on task  6)
  |   Maximum:        6.207 MB (hamiltonian_shell on task 16)
  |   Average:        5.512 MB
  Note:  These values currently only include a subset of arrays which are explicitly tracked.
  The "true" memory usage will be greater.
------------------------------------------------------------

------------------------------------------------------------
          Begin self-consistency iteration #    2

  Date     :  20240710, Time     :  232459.827
------------------------------------------------------------
  Pulay mixing of updated and previous charge densities.
  Available memory per node after mixing [GB]:   1044.58
  Renormalizing the density to the exact electron count on the 3D integration grid.
  | Formal number of electrons (from input files) :      76.0000000000
  | Integrated number of electrons on 3D grid     :      76.0000000000
  | Charge integration error                      :      -0.0000000000
  | Normalization factor for density and gradient :       1.0000000000

  Evaluating partitioned Hartree potential by multipole expansion.
  | Original multipole sum: apparent total charge =   0.657928E-13
  | Sum of charges compensated after spline to logarithmic grids =   0.327501E-06
  | Analytical far-field extrapolation by fixed multipoles:
  | Hartree multipole sum: apparent total charge =   0.654915E-13
  Summing up the Hartree potential.
  Time summed over all CPUs for potential: real work        0.024 s, elapsed        0.025 s
  | RMS charge density error from multipole expansion :   0.445934E-02
  | Average real-space part of the electrostatic potential :      0.28294589 eV

  Integrating Hamiltonian matrix: batch-based integration.
  Time summed over all CPUs for integration: real work        2.519 s, elapsed        2.664 s

  Updating Kohn-Sham eigenvalues and eigenvectors using ELSI and the ELPA eigensolver.
  Starting ELPA eigensolver
  Finished transformation to standard eigenproblem
  | Time :     0.000 s
  Finished solving standard eigenproblem
  | Time :     0.002 s
  Finished back-transformation of eigenvectors
  | Time :     0.000 s

  Obtaining occupation numbers and electronic chemical potential using ELSI.
  | Note that, for insulating systems, the printed 'chemical potential' value is not uniquely defined.
  | It can be anywhere in the energy gap, as long as it correctly separates occupied and unoccupied states.
  | In systems with a gap, the physically relevant chemical potential is the VBM or HOMO.

  | Chemical potential (Fermi level):    -6.76662321 eV
  What follows are estimated values for band gap, HOMO, LUMO, etc.
  | They are estimated on a discrete k-point grid and not necessarily exact.
  | For converged numbers, create a DOS and/or band structure plot on a denser k-grid.

  Highest occupied state (VBM) at     -6.97757789 eV (relative to internal zero)
  | Occupation number:      2.00000000
  | K-point:       4 at    0.000000    0.500000    0.500000 (in units of recip. lattice)

  Lowest unoccupied state (CBM) at    -6.64564097 eV (relative to internal zero)
  | Occupation number:      0.00000000
  | K-point:       3 at    0.000000    0.500000    0.000000 (in units of recip. lattice)

  ESTIMATED overall HOMO-LUMO gap:      0.33193692 eV between HOMO at k-point 4 and LUMO at k-point 3
  | This appears to be an indirect band gap.
  | Smallest direct gap :      0.61408073 eV for k_point 4 at    0.000000    0.500000    0.500000 (in units of recip. lattice)
  The gap value is above 0.2 eV. Unless you are using a very sparse k-point grid,
  this system is most likely an insulator or a semiconductor.

  Checking to see if s.c.f. parameters should be adjusted.
  The system likely has a gap. Increased the default Pulay mixing parameter (charge_mix_param). Value:   0.200000 .
  Kept the default occupation width. Value:   0.010000 eV.

  Total energy components:
  | Sum of eigenvalues            :       -1196.02931482 Ha      -32545.61355875 eV
  | XC energy correction          :        -118.91490860 Ha       -3235.83930065 eV
  | XC potential correction       :         153.79075077 Ha        4184.85925183 eV
  | Free-atom electrostatic energy:        -850.80121301 Ha      -23151.47894030 eV
  | Hartree energy correction     :          -1.14967960 Ha         -31.28437366 eV
  | Entropy correction            :          -0.00000000 Ha          -0.00000000 eV
  | ---------------------------
  | Total energy                  :       -2013.10436525 Ha      -54779.35692153 eV
  | Total energy, T -> 0          :       -2013.10436525 Ha      -54779.35692153 eV  <-- do not rely on this value for anything but (periodic) metals
  | Electronic free energy        :       -2013.10436525 Ha      -54779.35692153 eV

  Derived energy quantities:
  | Kinetic energy                :        2030.49385203 Ha       55252.54893235 eV
  | Electrostatic energy          :       -3924.68330868 Ha     -106796.06655322 eV
  | Energy correction for multipole
  | error in Hartree potential    :           0.00560852 Ha           0.15261550 eV
  | Sum of eigenvalues per atom                           :       -5424.26892646 eV
  | Total energy (T->0) per atom                          :       -9129.89282025 eV  <-- do not rely on this value for anything but (periodic) metals
  | Electronic free energy per atom                       :       -9129.89282025 eV
  Evaluating new KS density using the density matrix
  Evaluating density matrix
  Finished density matrix calculation
  | Time :     0.001 s
  Time summed over all CPUs for getting density from density matrix: real work        5.211 s, elapsed        5.566 s
  Integration grid: deviation in total charge (<rho> - N_e) =   1.421085E-14

  Self-consistency convergence accuracy:
  | Change of charge density      :  0.6215E+00
  | Change of unmixed KS density  :  0.2651E+00
  | Change of sum of eigenvalues  :  0.2144E+02 eV
  | Change of total energy        :  0.3594E+01 eV


------------------------------------------------------------
  End self-consistency iteration #     2       :  max(cpu_time)    wall_clock(cpu1)
  | Time for this iteration                     :        0.382 s           0.381 s
  | Charge density update                       :        0.236 s           0.236 s
  | Density mixing                              :        0.000 s           0.000 s
  | Hartree multipole update                    :        0.001 s           0.001 s
  | Hartree multipole summation                 :        0.027 s           0.026 s
  | Integration                                 :        0.115 s           0.115 s
  | Solution of K.-S. eqns.                     :        0.003 s           0.003 s
  | Total energy evaluation                     :        0.000 s           0.000 s

  Partial memory accounting:
  | Current value for overall tracked memory usage:
  |   Minimum:        4.112 MB (on task  5)
  |   Maximum:        4.196 MB (on task  9)
  |   Average:        4.162 MB
  | Peak value for overall tracked memory usage:
  |   Minimum:       12.978 MB (on task  6 after allocating gradient_basis_wave)
  |   Maximum:       15.119 MB (on task 16 after allocating gradient_basis_wave)
  |   Average:       14.145 MB
  | Largest tracked array allocation so far:
  |   Minimum:        4.689 MB (hamiltonian_shell on task  6)
  |   Maximum:        6.207 MB (hamiltonian_shell on task 16)
  |   Average:        5.512 MB
  Note:  These values currently only include a subset of arrays which are explicitly tracked.
  The "true" memory usage will be greater.
------------------------------------------------------------

------------------------------------------------------------
          Begin self-consistency iteration #    3

  Date     :  20240710, Time     :  232500.209
------------------------------------------------------------
  Pulay mixing of updated and previous charge densities.
  Available memory per node after mixing [GB]:   1044.58
  Renormalizing the density to the exact electron count on the 3D integration grid.
  | Formal number of electrons (from input files) :      76.0000000000
  | Integrated number of electrons on 3D grid     :      76.0000000000
  | Charge integration error                      :      -0.0000000000
  | Normalization factor for density and gradient :       1.0000000000

  Evaluating partitioned Hartree potential by multipole expansion.
  | Original multipole sum: apparent total charge =   0.732951E-13
  | Sum of charges compensated after spline to logarithmic grids =   0.285399E-05
  | Analytical far-field extrapolation by fixed multipoles:
  | Hartree multipole sum: apparent total charge =   0.724096E-13
  Summing up the Hartree potential.
  Time summed over all CPUs for potential: real work        0.025 s, elapsed        0.026 s
  | RMS charge density error from multipole expansion :   0.968678E-02
  | Average real-space part of the electrostatic potential :      0.54725473 eV

  Integrating Hamiltonian matrix: batch-based integration.
  Time summed over all CPUs for integration: real work        2.540 s, elapsed        2.681 s

  Updating Kohn-Sham eigenvalues and eigenvectors using ELSI and the ELPA eigensolver.
  Starting ELPA eigensolver
  Finished transformation to standard eigenproblem
  | Time :     0.001 s
  Finished solving standard eigenproblem
  | Time :     0.001 s
  Finished back-transformation of eigenvectors
  | Time :     0.000 s

  Obtaining occupation numbers and electronic chemical potential using ELSI.
  | Note that, for insulating systems, the printed 'chemical potential' value is not uniquely defined.
  | It can be anywhere in the energy gap, as long as it correctly separates occupied and unoccupied states.
  | In systems with a gap, the physically relevant chemical potential is the VBM or HOMO.

  | Chemical potential (Fermi level):    -6.46757071 eV
  What follows are estimated values for band gap, HOMO, LUMO, etc.
  | They are estimated on a discrete k-point grid and not necessarily exact.
  | For converged numbers, create a DOS and/or band structure plot on a denser k-grid.

  Highest occupied state (VBM) at     -6.55426546 eV (relative to internal zero)
  | Occupation number:      2.00000000
  | K-point:       6 at    0.500000    0.000000    0.500000 (in units of recip. lattice)

  Lowest unoccupied state (CBM) at    -6.41198631 eV (relative to internal zero)
  | Occupation number:      0.00000000
  | K-point:       3 at    0.000000    0.500000    0.000000 (in units of recip. lattice)

  ESTIMATED overall HOMO-LUMO gap:      0.14227916 eV between HOMO at k-point 6 and LUMO at k-point 3
  | This appears to be an indirect band gap.
  | Smallest direct gap :      0.43783952 eV for k_point 6 at    0.500000    0.000000    0.500000 (in units of recip. lattice)
  The gap value is rather small. This may be a metal or a small-gap semiconductor.
  Since we use a finite k-point grid, a DOS and/or band structure plot is required
  for an unambiguous assignment.

  Total energy components:
  | Sum of eigenvalues            :       -1194.81695252 Ha      -32512.62350222 eV
  | XC energy correction          :        -119.10483917 Ha       -3241.00757436 eV
  | XC potential correction       :         154.03547957 Ha        4191.51866109 eV
  | Free-atom electrostatic energy:        -850.80121301 Ha      -23151.47894030 eV
  | Hartree energy correction     :          -2.36889372 Ha         -64.46087792 eV
  | Entropy correction            :          -0.00000000 Ha          -0.00000000 eV
  | ---------------------------
  | Total energy                  :       -2013.05641886 Ha      -54778.05223371 eV
  | Total energy, T -> 0          :       -2013.05641886 Ha      -54778.05223371 eV  <-- do not rely on this value for anything but (periodic) metals
  | Electronic free energy        :       -2013.05641886 Ha      -54778.05223371 eV

  Derived energy quantities:
  | Kinetic energy                :        2031.47732486 Ha       55279.31058980 eV
  | Electrostatic energy          :       -3925.42890455 Ha     -106816.35524914 eV
  | Energy correction for multipole
[...]
  |                                                                   |
  +-------------------------------------------------------------------+

 * Warning: Stress tensor is anisotropic. Be aware that pressure is an isotropic quantity.


  Self-consistency convergence accuracy:
  | Change of charge density      :  0.1231E-07
  | Change of unmixed KS density  :  0.1552E-07
  | Change of sum of eigenvalues  :  0.3193E-06 eV
  | Change of total energy        : -0.1671E-09 eV
  | Change of forces              :  0.2558E-05 eV/A

  Writing Kohn-Sham eigenvalues.
  K-point:       1 at    0.000000    0.000000    0.000000 (in units of recip. lattice)

  State    Occupation    Eigenvalue [Ha]    Eigenvalue [eV]
      1       2.00000        -180.099071        -4900.74508
      2       2.00000        -180.099051        -4900.74454
      3       2.00000         -19.892928         -541.31411
      4       2.00000         -19.892912         -541.31367
      5       2.00000         -18.862985         -513.28793
      6       2.00000         -18.862985         -513.28793
      7       2.00000         -18.862984         -513.28791
      8       2.00000         -18.862984         -513.28791
      9       2.00000         -16.480344         -448.45298
     10       2.00000         -16.480327         -448.45252
     11       2.00000         -16.480317         -448.45224
     12       2.00000         -16.480301         -448.45180
     13       2.00000         -16.480248         -448.45037
     14       2.00000         -16.480232         -448.44993
     15       2.00000          -2.421329          -65.88773
     16       2.00000          -2.420801          -65.87334
     17       2.00000          -1.549622          -42.16737
     18       2.00000          -1.549620          -42.16732
     19       2.00000          -1.544157          -42.01866
     20       2.00000          -1.544152          -42.01851
     21       2.00000          -1.543101          -41.98991
     22       2.00000          -1.542029          -41.96075
     23       2.00000          -0.982380          -26.73192
     24       2.00000          -0.940721          -25.59833
     25       2.00000          -0.916070          -24.92753
     26       2.00000          -0.916062          -24.92730
     27       2.00000          -0.527758          -14.36102
     28       2.00000          -0.512211          -13.93798
     29       2.00000          -0.490861          -13.35701
     30       2.00000          -0.456322          -12.41716
     31       2.00000          -0.456278          -12.41597
     32       2.00000          -0.409476          -11.14241
     33       2.00000          -0.409454          -11.14181
     34       2.00000          -0.390391          -10.62308
     35       2.00000          -0.343714           -9.35294
     36       2.00000          -0.333261           -9.06849
     37       2.00000          -0.333251           -9.06822
     38       2.00000          -0.314299           -8.55250
     39       0.00000          -0.259323           -7.05655
     40       0.00000          -0.248636           -6.76573
     41       0.00000          -0.240300           -6.53891
     42       0.00000          -0.237399           -6.45996
     43       0.00000          -0.237394           -6.45981
     44       0.00000          -0.170964           -4.65217
     45       0.00000          -0.162603           -4.42466
     46       0.00000          -0.091007           -2.47643
     47       0.00000          -0.090960           -2.47514
     48       0.00000          -0.053776           -1.46332
     49       0.00000          -0.035010           -0.95267
     50       0.00000           0.121758            3.31321
     51       0.00000           0.121787            3.31401
     52       0.00000           0.231606            6.30232
     53       0.00000           0.263427            7.16822
     54       0.00000           0.319378            8.69071
     55       0.00000           0.343504            9.34723
     56       0.00000           0.400441           10.89656
     57       0.00000           0.400462           10.89713
     58       0.00000           0.461495           12.55791
     59       0.00000           0.598038           16.27343
     60       0.00000           0.641431           17.45421
     61       0.00000           0.713165           19.40621

  What follows are estimated values for band gap, HOMO, LUMO, etc.
  | They are estimated on a discrete k-point grid and not necessarily exact.
  | For converged numbers, create a DOS and/or band structure plot on a denser k-grid.

  Highest occupied state (VBM) at     -8.55250151 eV (relative to internal zero)
  | Occupation number:      2.00000000
  | K-point:       1 at    0.000000    0.000000    0.000000 (in units of recip. lattice)

  Lowest unoccupied state (CBM) at    -7.05654971 eV (relative to internal zero)
  | Occupation number:      0.00000000
  | K-point:       1 at    0.000000    0.000000    0.000000 (in units of recip. lattice)

  ESTIMATED overall HOMO-LUMO gap:      1.49595181 eV between HOMO at k-point 1 and LUMO at k-point 1
  | This appears to be a direct band gap.
  The gap value is above 0.2 eV. Unless you are using a very sparse k-point grid,
  this system is most likely an insulator or a semiconductor.

  | Chemical Potential                          :    -8.22159630 eV
  | Note that, for insulating systems, the printed 'chemical potential' value is not uniquely defined.
  | It can be anywhere in the energy gap, as long as it correctly separates occupied and unoccupied states.
  | In systems with a gap, the physically relevant chemical potential is the VBM or HOMO.

  Self-consistency cycle converged.


------------------------------------------------------------
  End self-consistency iteration #    10       :  max(cpu_time)    wall_clock(cpu1)
  | Time for this iteration                     :        4.386 s           4.387 s
  | Charge density & force component update     :        3.953 s           3.953 s
  | Density mixing                              :        0.000 s           0.000 s
  | Hartree multipole update                    :        0.001 s           0.001 s
  | Hartree multipole summation                 :        0.168 s           0.168 s
  | Hartree pot. SCF incomplete forces          :        0.145 s           0.145 s
  | Integration                                 :        0.116 s           0.116 s
  | Solution of K.-S. eqns.                     :        0.003 s           0.003 s
  | Total energy evaluation                     :        0.000 s           0.000 s

  Partial memory accounting:
  | Current value for overall tracked memory usage:
  |   Minimum:        6.134 MB (on task  5)
  |   Maximum:        6.228 MB (on task  3)
  |   Average:        6.172 MB
  | Peak value for overall tracked memory usage:
  |   Minimum:       26.454 MB (on task 16 after allocating d_wave)
  |   Maximum:       28.077 MB (on task  3 after allocating d_wave)
  |   Average:       27.054 MB
  | Largest tracked array allocation so far:
  |   Minimum:        5.345 MB (hamiltonian_shell on task 11)
  |   Maximum:        6.207 MB (hamiltonian_shell on task 16)
  |   Average:        5.694 MB
  Note:  These values currently only include a subset of arrays which are explicitly tracked.
  The "true" memory usage will be greater.
------------------------------------------------------------
  Removing unitary transformations (pure translations, rotations) from forces on atoms.
  Atomic forces before filtering:
  | Net force on center of mass :  -0.119556E-06 -0.635975E-07 -0.393702E-05 eV/A
  Atomic forces after filtering:
  | Net force on center of mass :   0.174225E-18  0.000000E+00  0.174225E-18 eV/A

  Energy and forces in a compact form:
  | Total energy uncorrected      :         -0.548004445706078E+05 eV
  | Total energy corrected        :         -0.548004445706078E+05 eV  <-- do not rely on this value for anything but (periodic) metals
  | Electronic free energy        :         -0.548004445706078E+05 eV
  Total atomic forces (unitary forces cleaned) [eV/Ang]:
  |    1          0.521543319394367E-06         -0.677458883541909E-06         -0.121366525146887E-02
  |    2         -0.849517765229590E-06          0.489690096593920E-06         -0.143817864276288E-03
  |    3          0.977376525756461E-03          0.981406707047543E-03          0.122536948035209E-03
  |    4         -0.977112109430888E-03         -0.981375332842314E-03          0.122536682428237E-03
  |    5          0.116075297120435E-02         -0.115720811373326E-02          0.556204333434008E-03
  |    6         -0.116068941308409E-02          0.115736450831498E-02          0.556205151847707E-03

  ------------------------------------ 
  Start decomposition of the XC Energy 
  ------------------------------------ 
  X and C from original XC functional choice 
  Hartree-Fock Energy :          0.000000000 Ha              0.000000000 eV
  X Energy            :       -115.607287318 Ha          -3145.834346215 eV
  C Energy            :         -3.008380709 Ha            -81.862204185 eV
  XC Energy w/o HF    :       -118.615668027 Ha          -3227.696550400 eV
  Total XC Energy     :       -118.615668027 Ha          -3227.696550400 eV
  ------------------------------------ 
  LDA X and C from self-consistent density 
  X Energy LDA        :       -107.316596634 Ha          -2920.233174226 eV
  C Energy LDA        :         -5.870670573 Ha           -159.749074238 eV
  ------------------------------------ 
  End decomposition of the XC Energy 
  ------------------------------------ 

------------------------------------------------------------
  Relaxation / MD: End force evaluation.       :  max(cpu_time)    wall_clock(cpu1)
  | Time for this force evaluation              :        8.693 s           8.695 s

------------------------------------------------------------
  Geometry optimization: Attempting to predict improved coordinates.

  +-------------------------------------------------------------------+
  | Generalized derivatives on lattice vectors [eV/A]                 |
  +-------------------------------------------------------------------+
  |lattice_vector       0.00064655       0.00112233      -0.00000000  |
  |lattice_vector       0.00112232       0.00062491       0.00000000  |
  |lattice_vector      -0.00000000       0.00000000       0.00105703  |
  +-------------------------------------------------------------------+
  | Forces on lattice vectors cleaned from atomic contributions [eV/A]|
  +-------------------------------------------------------------------+
  |lattice_vector      -0.00064655      -0.00112233       0.00000000  |
  |lattice_vector      -0.00112232      -0.00062491      -0.00000000  |
  |lattice_vector       0.00000000      -0.00000000      -0.00105703  |
  +-------------------------------------------------------------------+
  Removing unitary transformations (pure translations, rotations) from forces on atoms.
  Atomic forces before filtering:
  | Net force on center of mass :   0.174225E-18  0.000000E+00  0.174225E-18 eV/A
  Atomic forces after filtering:
  | Net force on center of mass :   0.000000E+00  0.000000E+00  0.174225E-18 eV/A
  Net remaining forces (excluding translations, rotations) in present geometry:
  || Forces on atoms   || =   0.121367E-02 eV/A.
  || Forces on lattice || =   0.112233E-02 eV/A^3.
  Maximum force component is  0.121367E-02 eV/A.
  Present geometry is converged.

------------------------------------------------------------
  Final atomic structure:
                         x [A]             y [A]             z [A]
  lattice_vector         4.63675790        0.00014228       -0.00000000
  lattice_vector         0.00014252        4.63678780       -0.00000000
  lattice_vector        -0.00000000       -0.00000000        2.98843860

            atom        -0.00000004        0.00000002       -0.00012063  Ti
            atom         2.31845021        2.31846503        1.49424504  Ti
            atom         1.40951633        1.40957056        0.00002100  O
            atom         3.22738411        3.22735952        0.00002100  O
            atom         0.90895712        3.72801258        1.49424574  O
            atom         3.72794331        0.90891749        1.49424574  O

  Fractional coordinates:
                         L1                L2                L3
       atom_frac        -0.00000001        0.00000000       -0.00004036  Ti
       atom_frac         0.50000000        0.50000000        0.50000861  Ti
       atom_frac         0.30397813        0.30398788        0.00000703  O
       atom_frac         0.69602187        0.69601212        0.00000703  O
       atom_frac         0.19600819        0.80400157        0.50000885  O
       atom_frac         0.80399181        0.19599842        0.50000885  O
------------------------------------------------------------

------------------------------------------------------------------------------
  Final output of selected total energy values:

  The following output summarizes some interesting total energy values
  at the end of a run (AFTER all relaxation, molecular dynamics, etc.).

  | Total energy of the DFT / Hartree-Fock s.c.f. calculation      :         -54800.444570608 eV
  | Final zero-broadening corrected energy (caution - metals only) :         -54800.444570608 eV
  | For reference only, the value of 1 Hartree used in FHI-aims is :             27.211384500 eV
  | For reference only, the overall average (free atom contribution
  | + realspace contribution) of the electrostatic potential after
  | s.c.f. convergence is                                          :            -16.978778118 eV

  Before relying on these values, please be sure to understand exactly which
  total energy value is referred to by a given number. Different objects may
  all carry the same name 'total energy'. Definitions:

  Total energy of the DFT / Hartree-Fock s.c.f. calculation:
  | Note that this energy does not include ANY quantities calculated after the
  | s.c.f. cycle, in particular not ANY RPA, MP2, etc. many-body perturbation terms.

  Final zero-broadening corrected energy:
  | For metallic systems only, a broadening of the occupation numbers at the Fermi
  | level can be extrapolated back to zero broadening by an electron-gas inspired
  | formula. For all systems that are not real metals, this value can be
  | meaningless and should be avoided.

------------------------------------------------------------------------------
  Methods described in the following list of references were used in this FHI-aims run.
  If you publish the results, please make sure to cite these reference if they apply.
  FHI-aims is an academic code, and for our developers (often, Ph.D. students
  and postdocs), scientific credit in the community is essential.
  Thank you for helping us!

  For any use of FHI-aims, please cite:

    Volker Blum, Ralf Gehrke, Felix Hanke, Paula Havu, Ville Havu,
    Xinguo Ren, Karsten Reuter, and Matthias Scheffler
    'Ab initio molecular simulations with numeric atom-centered orbitals'
    Computer Physics Communications 180, 2175-2196 (2009)
    http://doi.org/10.1016/j.cpc.2009.06.022


  For the analytical stress tensor used in your run, please cite:

    Franz Knuth, Christian Carbogno, Viktor Atalla, Volker Blum, Matthias Scheffler
    'All-electron formalism for total energy strain derivatives and
    stress tensor components for numeric atom-centered orbitals'
    Computer Physics Communications 190, 33-50 (2015).
    http://doi.org/10.1016/j.cpc.2015.01.003


  The provided symmetry information was generated with SPGlib:

    Atsushi Togo, Yusuke Seto, Dimitar Pashov
    SPGlib 1.7.3 obtained from http://spglib.sourceforge.net
    Licence: New BSD license
    Copyright (C) 2008 Atsushi Togo


  The ELSI infrastructure was used in your run to solve the Kohn-Sham electronic structure.
  Please check out https://wordpress.elsi-interchange.org to learn more.
  If scalability is important for your project, please acknowledge ELSI by citing:

    V. W-z. Yu, F. Corsetti, A. Garcia, W. P. Huhn, M. Jacquelin, W. Jia,
    B. Lange, L. Lin, J. Lu, W. Mi, A. Seifitokaldani, A. Vazquez-Mayagoitia,
    C. Yang, H. Yang, and V. Blum
    'ELSI: A unified software interface for Kohn-Sham electronic structure solvers'
    Computer Physics Communications 222, 267-285 (2018).
    http://doi.org/10.1016/j.cpc.2017.09.007


  For the real-space grid partitioning and parallelization used in this calculation, please cite:

    Ville Havu, Volker Blum, Paula Havu, and Matthias Scheffler,
    'Efficient O(N) integration for all-electron electronic structure calculation'
    'using numerically tabulated basis functions'
    Journal of Computational Physics 228, 8367-8379 (2009).
    http://doi.org/10.1016/j.jcp.2009.08.008

  Of course, there are many other important community references, e.g., those cited in the
  above references. Our list is limited to references that describe implementations in the
  FHI-aims code. The reason is purely practical (length of this list) - please credit others as well.

------------------------------------------------------------
          Leaving FHI-aims.
          Date     :  20240710, Time     :  232723.463

          Computational steps:
          | Number of self-consistency cycles          :          210
          | Number of SCF (re)initializations          :           14
          | Number of relaxation steps                 :           13

          Detailed time accounting                     :  max(cpu_time)    wall_clock(cpu1)
          | Total time                                  :      144.855 s         144.875 s
          | Preparation time                            :        0.208 s           0.206 s
          | Boundary condition initalization            :        0.332 s           0.315 s
          | Grid partitioning                           :        0.205 s           0.207 s
          | Preloading free-atom quantities on grid     :        1.130 s           1.127 s
          | Free-atom superposition energy              :        0.119 s           0.120 s
          | Total time for integrations                 :       24.858 s          24.856 s
          | Total time for solution of K.-S. equations  :        0.601 s           0.605 s
          | Total time for EV reorthonormalization      :        0.011 s           0.017 s
          | Total time for density & force components   :      102.952 s         102.955 s
          | Total time for mixing                       :        0.056 s           0.050 s
          | Total time for Hartree multipole update     :        0.170 s           0.167 s
          | Total time for Hartree multipole sum        :        9.858 s           9.861 s
          | Total time for total energy evaluation      :        0.014 s           0.014 s
          | Total time NSC force correction             :        4.080 s           4.079 s
          | Total time for scaled ZORA corrections      :        0.000 s           0.000 s

          Partial memory accounting:
          | Residual value for overall tracked memory usage across tasks:     0.000000 MB (should be 0.000000 MB)
          | Peak values for overall tracked memory usage:
          |   Minimum:       26.454 MB (on task 16 after allocating d_wave)
          |   Maximum:       28.077 MB (on task  3 after allocating d_wave)
          |   Average:       27.054 MB
          | Largest tracked array allocation:
          |   Minimum:        5.345 MB (hamiltonian_shell on task 11)
          |   Maximum:        6.207 MB (hamiltonian_shell on task 16)
          |   Average:        5.694 MB
          Note:  These values currently only include a subset of arrays which are explicitly tracked.
          The "true" memory usage will be greater.

          Have a nice day.
------------------------------------------------------------
