------------------------------------------------------------
          Invoking FHI-aims ...

          When using FHI-aims, please cite the following reference:

            Volker Blum, Ralf Gehrke, Felix Hanke, Paula Havu,
            Ville Havu, Xinguo Ren, Karsten Reuter, and Matthias Scheffler,
            'Ab Initio Molecular Simulations with Numeric Atom-Centered Orbitals',
            Computer Physics Communications 180, 2175-2196 (2009)

          In addition, many other developments in FHI-aims are likely important for
          your particular application. If so, please cite them. A partial list of references
          is written at the end of this file. Thank you for giving credit to the authors
          of these developments.

          For general information about FHI-aims please find us at

            https://fhi-aims.org

          Online tutorials can be found at

            https://fhi-aims-club.gitlab.io/tutorials/tutorials-overview/

          For any questions about FHI-aims, please visit our slack channel at

            https://fhi-aims.slack.com

          and our main development and support site at

            https://aims-git.rz-berlin.mpg.de .

          The latter site, in particular, has a wiki to collect information, as well
          as an issue tracker to log discussions, suggest improvements, and report issues
          or bugs. https://aims-git.rz-berlin.mpg.de is also the main development site
          of the project and all new and updated code versions can be obtained there.
          Please send an email to aims-coordinators@fhi-berlin.mpg.de and we will add
          you to these sites. They are for you and everyone is welcome there.

------------------------------------------------------------



  Date     :  20241110, Time     :  200930.078
  Time zero on CPU 1             :   0.523436000000000E+00  s.
  Internal wall clock time zero  :           500501370.078  s.

  FHI-aims created a unique identifier for this run for later identification
  aims_uuid : B0825B74-1A66-4010-A37E-5FB6E698B350

  Build configuration of the current instance of FHI-aims
  -------------------------------------------------------
  FHI-aims version      : 240605
  Commit number         : b001b2e18
  CMake host system     : Linux-6.5.0-41-generic
  CMake version         : 3.22.1
  Fortran compiler      : /opt/intel/oneapi/mpi/2021.12/bin/mpiifort (IntelLLVM) version 2024.1.0
  Fortran compiler flags: -fc=ifx -O3 -ip -fp-model precise
  C compiler            : /opt/intel/oneapi/mpi/2021.12/bin/mpiicc (IntelLLVM) version 2024.1.0
  C compiler flags      : -cc=icx -O3 -ip -fp-model precise -std=gnu99
  C++ compiler          : /opt/intel/oneapi/mpi/2021.12/bin/mpiicpc (IntelLLVM) version 2024.1.0
  C++ compiler flags    : -cxx=icpx -O3 -ip -fp-model precise -std=c++11
  HIP compiler          :
  HIP compiler flags    :
  HIP GPU arch          :
  Using MPI
  Using ScaLAPACK
  Using LibXC
  Using i-PI
  Using RLSY
  Linking against: /opt/intel/oneapi/mkl/2024.1/lib/intel64/libmkl_intel_lp64.so
                   /opt/intel/oneapi/mkl/2024.1/lib/intel64/libmkl_sequential.so
                   /opt/intel/oneapi/mkl/2024.1/lib/intel64/libmkl_core.so
                   /opt/intel/oneapi/mkl/2024.1/lib/intel64/libmkl_blacs_intelmpi_lp64.so
                   /opt/intel/oneapi/mkl/2024.1/lib/intel64/libmkl_scalapack_lp64.so
                   /opt/intel/oneapi/mkl/2024.1/lib/intel64/libmkl_core.so

  Using       64 parallel tasks.
  Task        0 on host RSL-arvutus reporting.
  Task        1 on host RSL-arvutus reporting.
  Task        2 on host RSL-arvutus reporting.
  Task        3 on host RSL-arvutus reporting.
  Task        4 on host RSL-arvutus reporting.
  Task        5 on host RSL-arvutus reporting.
  Task        6 on host RSL-arvutus reporting.
  Task        7 on host RSL-arvutus reporting.
  Task        8 on host RSL-arvutus reporting.
  Task        9 on host RSL-arvutus reporting.
  Task       10 on host RSL-arvutus reporting.
  Task       11 on host RSL-arvutus reporting.
  Task       12 on host RSL-arvutus reporting.
  Task       13 on host RSL-arvutus reporting.
  Task       14 on host RSL-arvutus reporting.
  Task       15 on host RSL-arvutus reporting.
  Task       16 on host RSL-arvutus reporting.
  Task       17 on host RSL-arvutus reporting.
  Task       18 on host RSL-arvutus reporting.
  Task       19 on host RSL-arvutus reporting.
  Task       20 on host RSL-arvutus reporting.
  Task       21 on host RSL-arvutus reporting.
  Task       22 on host RSL-arvutus reporting.
  Task       23 on host RSL-arvutus reporting.
  Task       24 on host RSL-arvutus reporting.
  Task       25 on host RSL-arvutus reporting.
  Task       26 on host RSL-arvutus reporting.
  Task       27 on host RSL-arvutus reporting.
  Task       28 on host RSL-arvutus reporting.
  Task       29 on host RSL-arvutus reporting.
  Task       30 on host RSL-arvutus reporting.
  Task       31 on host RSL-arvutus reporting.
  Task       32 on host RSL-arvutus reporting.
  Task       33 on host RSL-arvutus reporting.
  Task       34 on host RSL-arvutus reporting.
  Task       35 on host RSL-arvutus reporting.
  Task       36 on host RSL-arvutus reporting.
  Task       37 on host RSL-arvutus reporting.
  Task       38 on host RSL-arvutus reporting.
  Task       39 on host RSL-arvutus reporting.
  Task       40 on host RSL-arvutus reporting.
  Task       41 on host RSL-arvutus reporting.
  Task       42 on host RSL-arvutus reporting.
  Task       43 on host RSL-arvutus reporting.
  Task       44 on host RSL-arvutus reporting.
  Task       45 on host RSL-arvutus reporting.
  Task       46 on host RSL-arvutus reporting.
  Task       47 on host RSL-arvutus reporting.
  Task       48 on host RSL-arvutus reporting.
  Task       49 on host RSL-arvutus reporting.
  Task       50 on host RSL-arvutus reporting.
  Task       51 on host RSL-arvutus reporting.
  Task       52 on host RSL-arvutus reporting.
  Task       53 on host RSL-arvutus reporting.
  Task       54 on host RSL-arvutus reporting.
  Task       55 on host RSL-arvutus reporting.
  Task       56 on host RSL-arvutus reporting.
  Task       57 on host RSL-arvutus reporting.
  Task       58 on host RSL-arvutus reporting.
  Task       59 on host RSL-arvutus reporting.
  Task       60 on host RSL-arvutus reporting.
  Task       61 on host RSL-arvutus reporting.
  Task       62 on host RSL-arvutus reporting.
  Task       63 on host RSL-arvutus reporting.

  Memory overcommitment is allowed on your operating system.

  Obtaining array dimensions for all initial allocations:
  
  -----------------------------------------------------------------------
  Parsing control.in (first pass over file, find array dimensions only).
  The contents of control.in will be repeated verbatim below
  unless switched off by setting 'verbatim_writeout .false.' .
  in the first line of control.in .
  -----------------------------------------------------------------------
  
    xc              pbe
    relativistic    zora scalar 1.0e-12
    KS_method	  serial
    k_grid          2 4 1
  
    spin		  collinear
    default_initial_moment	0.0
  
    output          Mulliken
    output          dos_tetrahedron -12 10 4000
    dos_kgrid_factors 3 3 3
  
  ################################################################################
  #
  #  FHI-aims code project
  #  VB, Fritz-Haber Institut, 2009
  #
  #  Suggested "light" defaults for Ti atom (to be pasted into control.in file)
  #  Be sure to double-check any results obtained with these settings for post-processing,
  #  e.g., with the "tight" defaults and larger basis sets.
  #
  ################################################################################
    species        Ti
  #     global species definitions
      nucleus             22
      mass                47.867
  #
      l_hartree           4
  #
      cut_pot             3.5          1.5  1.0
      basis_dep_cutoff    1e-4
  #
      radial_base         48 5.0
      radial_multiplier   1
      angular_grids       specified
        division   0.5171   50
        division   0.9824  110
        division   1.2917  194
        division   1.4940  302
  #      division   1.6934  434
  #      division   1.8425  590
  #      division   2.1901  770
  #      division   2.2896  974
  #      division   2.8244 1202
  #      outer_grid  974
        outer_grid  302
  ################################################################################
  #
  #  Definition of "minimal" basis
  #
  ################################################################################
  #     valence basis states
      valence      4  s   2.
      valence      3  p   6.
      valence      3  d   2.
  #     ion occupancy
      ion_occ      4  s   1.
      ion_occ      3  p   6.
      ion_occ      3  d   1.
  ################################################################################
  #
  #  Suggested additional basis functions. For production calculations,
  #  uncomment them one after another (the most important basis functions are
  #  listed first).
  #
  #  Constructed for dimers: 1.6 A, 1.85 A, 2.5 A, 3.25 A, 4.25 A
  #
  ################################################################################
  #  "First tier" - improvements: -396.25 meV to -19.41 meV
       hydro 4 f 8
       hydro 3 d 2.7
       ionic 4 p auto
  #     hydro 5 g 11.6
       ionic 4 s auto
  #  "Second tier" - improvements: -16.30 meV to -2.03 meV
  #     hydro 3 d 4.4
  #     hydro 6 h 16
  #     hydro 4 f 9.4
  #     hydro 4 p 4.5
  #     hydro 1 s 0.5
  #  "Third tier" - improvements: -6.28 meV to -0.37 meV
  #     hydro 4 d 6.4
  #     hydro 4 f 10
  #     hydro 5 g 12
  #     hydro 2 p 1.7
  #     hydro 6 h 16.4
  #     hydro 4 s 3.8
  #  Further basis functions: -0.45 meV and smaller improvements
  #     hydro 3 d 8.8
  #     hydro 5 p 18
  #     hydro 4 f 22.4
  #     hydro 5 f 7.2  # -0.16 meV
  #     hydro 3 d 2.1  # -0.11 meV
  #     hydro 5 g 7.4  # -0.09 meV
  
  
  ################################################################################
  #
  #  FHI-aims code project
  #  VB, Fritz-Haber Institut, 2009
  #
  #  Suggested "light" defaults for O atom (to be pasted into control.in file)
  #  Be sure to double-check any results obtained with these settings for post-processing,
  #  e.g., with the "tight" defaults and larger basis sets.
  #
  ################################################################################
    species        O
  #     global species definitions
      nucleus             8
      mass                15.9994
  #
      l_hartree           4
  #
      cut_pot             3.5  1.5  1.0
      basis_dep_cutoff    1e-4
  #
      radial_base         36 5.0
      radial_multiplier   1
       angular_grids specified
        division   0.2659   50
        division   0.4451  110
        division   0.6052  194
        division   0.7543  302
  #      division   0.8014  434
  #      division   0.8507  590
  #      division   0.8762  770
  #      division   0.9023  974
  #      division   1.2339 1202
  #      outer_grid 974
        outer_grid 302
  ################################################################################
  #
  #  Definition of "minimal" basis
  #
  ################################################################################
  #     valence basis states
      valence      2  s   2.
      valence      2  p   4.
  #     ion occupancy
      ion_occ      2  s   1.
      ion_occ      2  p   3.
  ################################################################################
  #
  #  Suggested additional basis functions. For production calculations,
  #  uncomment them one after another (the most important basis functions are
  #  listed first).
  #
  #  Constructed for dimers: 1.0 A, 1.208 A, 1.5 A, 2.0 A, 3.0 A
  #
  ################################################################################
  #  "First tier" - improvements: -699.05 meV to -159.38 meV
       hydro 2 p 1.8
       hydro 3 d 7.6
       hydro 3 s 6.4
  #  "Second tier" - improvements: -49.91 meV to -5.39 meV
  #     hydro 4 f 11.6
  #     hydro 3 p 6.2
  #     hydro 3 d 5.6
  #     hydro 5 g 17.6
  #     hydro 1 s 0.75
  #  "Third tier" - improvements: -2.83 meV to -0.50 meV
  #     ionic 2 p auto
  #     hydro 4 f 10.8
  #     hydro 4 d 4.7
  #     hydro 2 s 6.8
  #  "Fourth tier" - improvements: -0.40 meV to -0.12 meV
  #     hydro 3 p 5
  #     hydro 3 s 3.3
  #     hydro 5 g 15.6
  #     hydro 4 f 17.6
  #     hydro 4 d 14
  # Further basis functions - -0.08 meV and below
  #     hydro 3 s 2.1
  #     hydro 4 d 11.6
  #     hydro 3 p 16
  #     hydro 2 s 17.2
  
  ################################################################################
  #
  #  "Core" basis functions and numerical settings for O atom.
  #  Based on “tight” defaults (V. Blum, 2009).
  #
  ################################################################################
    species        O1
  #     global species definitions
      nucleus             8.
      mass                15.9994
  #
      l_hartree           6
  #
      cut_pot             4.0  2.0  1.0
      basis_dep_cutoff    1e-4
  #
      radial_base         36 7.0
      radial_multiplier   2
       angular_grids specified
        division   0.1817   50
        division   0.3417  110
        division   0.4949  194
        division   0.6251  302
        division   0.8014  434
  #      division   0.8507  590
  #      division   0.8762  770
  #      division   0.9023  974
  #      division   1.2339 1202
  #      outer_grid 974
        outer_grid  434
  ################################################################################
  #
  #  Definition of "minimal" basis
  #
  ################################################################################
  #     valence basis states
      valence      2  s   2.
      valence      2  p   4.
  #     ion occupancy
      ion_occ      2  s   1.
      ion_occ      2  p   3.
  ################################################################################
  #
  #  Suggested additional basis functions. For production calculations,
  #  uncomment them one after another (the most important basis functions are
  #  listed first).
  #
  #  Constructed for dimers: 1.0 A, 1.208 A, 1.5 A, 2.0 A, 3.0 A
  #
  ################################################################################
  #  "First tier" - improvements: -699.05 meV to -159.38 meV
       hydro 2 p 1.8
       hydro 3 d 7.6
       hydro 3 s 6.4
  #  "Second tier" - improvements: -49.91 meV to -5.39 meV
       hydro 4 f 11.6
       hydro 3 p 6.2
       hydro 3 d 5.6
       hydro 5 g 17.6
       hydro 1 s 0.75
  #  "Third tier" - improvements: -2.83 meV to -0.50 meV
       ionic 2 p auto
       hydro 4 f 10.8
       hydro 4 d 4.7
       hydro 2 s 6.8
  #  "Fourth tier" - improvements: -0.40 meV to -0.12 meV
  #     hydro 3 p 5
  #     hydro 3 s 3.3
  #     hydro 5 g 15.6
  #     hydro 4 f 17.6
  #     hydro 4 d 14
  # Further basis functions - -0.08 meV and below
  #     hydro 3 s 2.1
  #     hydro 4 d 11.6
  #     hydro 3 p 16
  #     hydro 2 s 17.2
  
  # Additional basis functions for atom with a core hole
       hydro 1 s 12.0
       hydro 1 s 10.0
       hydro 1 s 6.0
       hydro 2 s 10.0
       hydro 2 p 8.0
       hydro 2 p 6.0
       hydro 3 d 8.0
  
  -----------------------------------------------------------------------
  Completed first pass over input file control.in .
  -----------------------------------------------------------------------
  
  
  -----------------------------------------------------------------------
  Parsing geometry.in (first pass over file, find array dimensions only).
  The contents of geometry.in will be repeated verbatim below
  unless switched off by setting 'verbatim_writeout .false.' .
  in the first line of geometry.in .
  -----------------------------------------------------------------------
  
  lattice_vector 19.698380 0.000000 0.000000
  lattice_vector 0.000000 8.918648 0.000000
  lattice_vector 0.000000 0.000000 65.976178
  
  atom_frac 0.333331 0.000000 0.371444 O
  atom_frac 0.101852 0.166667 0.390796 O
  atom_frac 0.166666 0.000000 0.390796 Ti
  atom_frac 0.333332 0.166667 0.390796 Ti
  atom_frac 0.231480 0.166667 0.390797 O
  atom_frac 0.000000 0.000000 0.410148 O
  atom_frac 0.166664 0.000000 0.421208 O
  atom_frac 0.268518 0.166667 0.440560 O
  atom_frac 0.333332 0.000000 0.440560 Ti
  atom_frac 0.166665 0.166667 0.440560 Ti
  atom_frac 0.064812 0.166667 0.440561 O
  atom_frac 0.166666 0.000000 0.459912 O
  atom_frac 0.333330 0.000000 0.470972 O
  atom_frac 0.101850 0.166667 0.490324 O
  atom_frac 0.166664 0.000000 0.490324 Ti
  atom_frac 0.333331 0.166667 0.490324 Ti
  atom_frac 0.231478 0.166667 0.490324 O
  atom_frac 0.333332 0.000000 0.509676 O
  atom_frac 0.166662 0.000000 0.520736 O
  atom_frac 0.268516 0.166667 0.540088 O
  atom_frac 0.333330 0.000000 0.540088 Ti
  atom_frac 0.166663 0.166667 0.540088 Ti
  atom_frac 0.064810 0.166667 0.540088 O
  atom_frac 0.166664 0.000000 0.559440 O
  atom_frac 0.333328 0.000000 0.570500 O
  atom_frac 0.101848 0.166667 0.589851 O
  atom_frac 0.166662 0.000000 0.589852 Ti
  atom_frac 0.333329 0.166667 0.589852 Ti
  atom_frac 0.231476 0.166667 0.589852 O
  atom_frac 0.333330 0.000000 0.609204 O
  atom_frac 0.166660 0.000000 0.620264 O
  atom_frac 0.268514 0.166667 0.639615 O
  atom_frac 0.333328 0.000000 0.639616 Ti
  atom_frac 0.166661 0.166667 0.639616 Ti
  atom_frac 0.064809 0.166667 0.639616 O
  atom_frac 0.166662 0.000000 0.658968 O
  atom_frac 0.333331 0.333333 0.371444 O
  atom_frac 0.101852 0.500000 0.390796 O
  atom_frac 0.166666 0.333333 0.390796 Ti
  atom_frac 0.333332 0.500000 0.390796 Ti
  atom_frac 0.231480 0.500000 0.390797 O
  atom_frac 0.000000 0.333333 0.410148 O
  atom_frac 0.166664 0.333333 0.421208 O
  atom_frac 0.268518 0.500000 0.440560 O
  atom_frac 0.333332 0.333333 0.440560 Ti
  atom_frac 0.166665 0.500000 0.440560 Ti
  atom_frac 0.064812 0.500000 0.440561 O
  atom_frac 0.166666 0.333333 0.459912 O
  atom_frac 0.333330 0.333333 0.470972 O
  atom_frac 0.101850 0.500000 0.490324 O
  atom_frac 0.166664 0.333333 0.490324 Ti
  atom_frac 0.333331 0.500000 0.490324 Ti
  atom_frac 0.231478 0.500000 0.490324 O
  atom_frac 0.333332 0.333333 0.509676 O
  atom_frac 0.166662 0.333333 0.520736 O
  atom_frac 0.268516 0.500000 0.540088 O
  atom_frac 0.333330 0.333333 0.540088 Ti
  atom_frac 0.166663 0.500000 0.540088 Ti
  atom_frac 0.064810 0.500000 0.540088 O
  atom_frac 0.166664 0.333333 0.559440 O
  atom_frac 0.333328 0.333333 0.570500 O
  atom_frac 0.101848 0.500000 0.589851 O
  atom_frac 0.166662 0.333333 0.589852 Ti
  atom_frac 0.333329 0.500000 0.589852 Ti
  atom_frac 0.231476 0.500000 0.589852 O
  atom_frac 0.333330 0.333333 0.609204 O
  atom_frac 0.166660 0.333333 0.620264 O
  atom_frac 0.268514 0.500000 0.639615 O
  atom_frac 0.333328 0.333333 0.639616 Ti
  atom_frac 0.166661 0.500000 0.639616 Ti
  atom_frac 0.064809 0.500000 0.639616 O
  atom_frac 0.166662 0.333333 0.658968 O
  atom_frac 0.333331 0.666667 0.371444 O
  atom_frac 0.101852 0.833333 0.390796 O
  atom_frac 0.166666 0.666667 0.390796 Ti
  atom_frac 0.333332 0.833333 0.390796 Ti
  atom_frac 0.231480 0.833333 0.390797 O
  atom_frac 0.000000 0.666667 0.410148 O
  atom_frac 0.166664 0.666667 0.421208 O
  atom_frac 0.268518 0.833333 0.440560 O
  atom_frac 0.333332 0.666667 0.440560 Ti
  atom_frac 0.166665 0.833333 0.440560 Ti
  atom_frac 0.064812 0.833333 0.440561 O
  atom_frac 0.166666 0.666667 0.459912 O
  atom_frac 0.333330 0.666667 0.470972 O
  atom_frac 0.101850 0.833333 0.490324 O
  atom_frac 0.166664 0.666667 0.490324 Ti
  atom_frac 0.333331 0.833333 0.490324 Ti
  atom_frac 0.231478 0.833333 0.490324 O
  atom_frac 0.333332 0.666667 0.509676 O
  atom_frac 0.166662 0.666667 0.520736 O
  atom_frac 0.268516 0.833333 0.540088 O
  atom_frac 0.333330 0.666667 0.540088 Ti
  atom_frac 0.166663 0.833333 0.540088 Ti
  atom_frac 0.064810 0.833333 0.540088 O
  atom_frac 0.166664 0.666667 0.559440 O
  atom_frac 0.333328 0.666667 0.570500 O
  atom_frac 0.101848 0.833333 0.589851 O
  atom_frac 0.166662 0.666667 0.589852 Ti
  atom_frac 0.333329 0.833333 0.589852 Ti
  atom_frac 0.231476 0.833333 0.589852 O
  atom_frac 0.333330 0.666667 0.609204 O
  atom_frac 0.166660 0.666667 0.620264 O
  atom_frac 0.268514 0.833333 0.639615 O
  atom_frac 0.333328 0.666667 0.639616 Ti
  atom_frac 0.166661 0.833333 0.639616 Ti
  atom_frac 0.064809 0.833333 0.639616 O
  atom_frac 0.166662 0.666667 0.658968 O
  atom_frac 0.666665 0.000000 0.371444 O
  atom_frac 0.435185 0.166667 0.390796 O
  atom_frac 0.499999 0.000000 0.390796 Ti
  atom_frac 0.666666 0.166667 0.390796 Ti
  atom_frac 0.564813 0.166667 0.390797 O
  atom_frac 0.333334 0.000000 0.410148 O
  atom_frac 0.499997 0.000000 0.421208 O
  atom_frac 0.601851 0.166667 0.440560 O
  atom_frac 0.666665 0.000000 0.440560 Ti
  atom_frac 0.499998 0.166667 0.440560 Ti
  atom_frac 0.398145 0.166667 0.440561 O
  atom_frac 0.499999 0.000000 0.459912 O
  atom_frac 0.666663 0.000000 0.470972 O
  atom_frac 0.435183 0.166667 0.490324 O
  atom_frac 0.499997 0.000000 0.490324 Ti
  atom_frac 0.666664 0.166667 0.490324 Ti
  atom_frac 0.564811 0.166667 0.490324 O
  atom_frac 0.666665 0.000000 0.509676 O
  atom_frac 0.499995 0.000000 0.520736 O
  atom_frac 0.601849 0.166667 0.540088 O
  atom_frac 0.666663 0.000000 0.540088 Ti
  atom_frac 0.499996 0.166667 0.540088 Ti
  atom_frac 0.398144 0.166667 0.540088 O
  atom_frac 0.499998 0.000000 0.559440 O
  atom_frac 0.666661 0.000000 0.570500 O
  atom_frac 0.435182 0.166667 0.589851 O
  atom_frac 0.499996 0.000000 0.589852 Ti
  atom_frac 0.666662 0.166667 0.589852 Ti
  atom_frac 0.564809 0.166667 0.589852 O
  atom_frac 0.666663 0.000000 0.609204 O
  atom_frac 0.499993 0.000000 0.620264 O
  atom_frac 0.601847 0.166667 0.639615 O
  atom_frac 0.666661 0.000000 0.639616 Ti
  atom_frac 0.499995 0.166667 0.639616 Ti
  atom_frac 0.398142 0.166667 0.639616 O
  atom_frac 0.499996 0.000000 0.658968 O
  atom_frac 0.666665 0.333333 0.371444 O
  atom_frac 0.435185 0.500000 0.390796 O
  atom_frac 0.499999 0.333333 0.390796 Ti
  atom_frac 0.666666 0.500000 0.390796 Ti
  atom_frac 0.564813 0.500000 0.390797 O
  atom_frac 0.333334 0.333333 0.410148 O
  atom_frac 0.499997 0.333333 0.421208 O
  atom_frac 0.601851 0.500000 0.440560 O
  atom_frac 0.666665 0.333333 0.440560 Ti
  atom_frac 0.499998 0.500000 0.440560 Ti
  atom_frac 0.398145 0.500000 0.440561 O
  atom_frac 0.499999 0.333333 0.459912 O
  atom_frac 0.666663 0.333333 0.470972 O
  atom_frac 0.435183 0.500000 0.490324 O
  atom_frac 0.499997 0.333333 0.490324 Ti
  atom_frac 0.666664 0.500000 0.490324 Ti
  atom_frac 0.564811 0.500000 0.490324 O
  atom_frac 0.666665 0.333333 0.509676 O
  atom_frac 0.499995 0.333333 0.520736 O
  atom_frac 0.601849 0.500000 0.540088 O
  atom_frac 0.666663 0.333333 0.540088 Ti
  atom_frac 0.499996 0.500000 0.540088 Ti
  atom_frac 0.398144 0.500000 0.540088 O
  atom_frac 0.499998 0.333333 0.559440 O
  atom_frac 0.666661 0.333333 0.570500 O
  atom_frac 0.435182 0.500000 0.589851 O
  atom_frac 0.499996 0.333333 0.589852 Ti
  atom_frac 0.666662 0.500000 0.589852 Ti
  atom_frac 0.564809 0.500000 0.589852 O
  atom_frac 0.666663 0.333333 0.609204 O
  atom_frac 0.499993 0.333333 0.620264 O
  atom_frac 0.601847 0.500000 0.639615 O
  atom_frac 0.666661 0.333333 0.639616 Ti
  atom_frac 0.499995 0.500000 0.639616 Ti
  atom_frac 0.398142 0.500000 0.639616 O
  atom_frac 0.499996 0.333333 0.658968 O
  atom_frac 0.666665 0.666667 0.371444 O
  atom_frac 0.435185 0.833333 0.390796 O
  atom_frac 0.499999 0.666667 0.390796 Ti
  atom_frac 0.666666 0.833333 0.390796 Ti
  atom_frac 0.564813 0.833333 0.390797 O
  atom_frac 0.333334 0.666667 0.410148 O
  atom_frac 0.499997 0.666667 0.421208 O
  atom_frac 0.601851 0.833333 0.440560 O
  atom_frac 0.666665 0.666667 0.440560 Ti
  atom_frac 0.499998 0.833333 0.440560 Ti
  atom_frac 0.398145 0.833333 0.440561 O
  atom_frac 0.499999 0.666667 0.459912 O
  atom_frac 0.666663 0.666667 0.470972 O
  atom_frac 0.435183 0.833333 0.490324 O
  atom_frac 0.499997 0.666667 0.490324 Ti
  atom_frac 0.666664 0.833333 0.490324 Ti
  atom_frac 0.564811 0.833333 0.490324 O
  atom_frac 0.666665 0.666667 0.509676 O
  atom_frac 0.499995 0.666667 0.520736 O
  atom_frac 0.601849 0.833333 0.540088 O
  atom_frac 0.666663 0.666667 0.540088 Ti
  atom_frac 0.499996 0.833333 0.540088 Ti
  atom_frac 0.398144 0.833333 0.540088 O
  atom_frac 0.499998 0.666667 0.559440 O
  atom_frac 0.666661 0.666667 0.570500 O
  atom_frac 0.435182 0.833333 0.589851 O
  atom_frac 0.499996 0.666667 0.589852 Ti
  atom_frac 0.666662 0.833333 0.589852 Ti
  atom_frac 0.564809 0.833333 0.589852 O
  atom_frac 0.666663 0.666667 0.609204 O
  atom_frac 0.499993 0.666667 0.620264 O
  atom_frac 0.601847 0.833333 0.639615 O
  atom_frac 0.666661 0.666667 0.639616 Ti
  atom_frac 0.499995 0.833333 0.639616 Ti
  atom_frac 0.398142 0.833333 0.639616 O
  atom_frac 0.499996 0.666667 0.658968 O
  atom_frac 0.999998 0.000000 0.371444 O
  atom_frac 0.768519 0.166667 0.390796 O
  atom_frac 0.833332 0.000000 0.390796 Ti
  atom_frac 0.999999 0.166667 0.390796 Ti
  atom_frac 0.898146 0.166667 0.390797 O
  atom_frac 0.666667 0.000000 0.410148 O
  atom_frac 0.833330 0.000000 0.421208 O
  atom_frac 0.935184 0.166667 0.440560 O
  atom_frac 0.999998 0.000000 0.440560 Ti
  atom_frac 0.833332 0.166667 0.440560 Ti
  atom_frac 0.731479 0.166667 0.440561 O
  atom_frac 0.833333 0.000000 0.459912 O
  atom_frac 0.999996 0.000000 0.470972 O
  atom_frac 0.768517 0.166667 0.490324 O
  atom_frac 0.833331 0.000000 0.490324 Ti
  atom_frac 0.999997 0.166667 0.490324 Ti
  atom_frac 0.898145 0.166667 0.490324 O
  atom_frac 0.999998 0.000000 0.509676 O
  atom_frac 0.833329 0.000000 0.520736 O
  atom_frac 0.935183 0.166667 0.540088 O
  atom_frac 0.999996 0.000000 0.540088 Ti
  atom_frac 0.833330 0.166667 0.540088 Ti
  atom_frac 0.731477 0.166667 0.540088 O
  atom_frac 0.833331 0.000000 0.559440 O
  atom_frac 0.999994 0.000000 0.570500 O
  atom_frac 0.768515 0.166667 0.589851 O
  atom_frac 0.833329 0.000000 0.589852 Ti
  atom_frac 0.999996 0.166667 0.589852 Ti
  atom_frac 0.898143 0.166667 0.589852 O
  atom_frac 0.999997 0.000000 0.609204 O
  atom_frac 0.833327 0.000000 0.620264 O
  atom_frac 0.935181 0.166667 0.639615 O
  atom_frac 0.999995 0.000000 0.639616 Ti
  atom_frac 0.833328 0.166667 0.639616 Ti
  atom_frac 0.731475 0.166667 0.639616 O
  atom_frac 0.833329 0.000000 0.658968 O
  atom_frac 0.999998 0.333333 0.371444 O
  atom_frac 0.768519 0.500000 0.390796 O
  atom_frac 0.833332 0.333333 0.390796 Ti
  atom_frac 0.999999 0.500000 0.390796 Ti
  atom_frac 0.898146 0.500000 0.390797 O
  atom_frac 0.666667 0.333333 0.410148 O
  atom_frac 0.833330 0.333333 0.421208 O
  atom_frac 0.935184 0.500000 0.440560 O
  atom_frac 0.999998 0.333333 0.440560 Ti
  atom_frac 0.833332 0.500000 0.440560 Ti
  atom_frac 0.731479 0.500000 0.440561 O
  atom_frac 0.833333 0.333333 0.459912 O
  atom_frac 0.999996 0.333333 0.470972 O
  atom_frac 0.768517 0.500000 0.490324 O
  atom_frac 0.833331 0.333333 0.490324 Ti
  atom_frac 0.999997 0.500000 0.490324 Ti
  atom_frac 0.898145 0.500000 0.490324 O
  atom_frac 0.999998 0.333333 0.509676 O
  atom_frac 0.833329 0.333333 0.520736 O
  atom_frac 0.935183 0.500000 0.540088 O
  atom_frac 0.999996 0.333333 0.540088 Ti
  atom_frac 0.833330 0.500000 0.540088 Ti
  atom_frac 0.731477 0.500000 0.540088 O
  atom_frac 0.833331 0.333333 0.559440 O
  atom_frac 0.999994 0.333333 0.570500 O
  atom_frac 0.768515 0.500000 0.589851 O
  atom_frac 0.833329 0.333333 0.589852 Ti
  atom_frac 0.999996 0.500000 0.589852 Ti
  atom_frac 0.898143 0.500000 0.589852 O
  atom_frac 0.999997 0.333333 0.609204 O
  atom_frac 0.833327 0.333333 0.620264 O
  atom_frac 0.935181 0.500000 0.639615 O
  atom_frac 0.999995 0.333333 0.639616 Ti
  atom_frac 0.833328 0.500000 0.639616 Ti
  atom_frac 0.731475 0.500000 0.639616 O
  atom_frac 0.833329 0.333333 0.658968 O
  atom_frac 0.999998 0.666667 0.371444 O
  atom_frac 0.768519 0.833333 0.390796 O
  atom_frac 0.833332 0.666667 0.390796 Ti
  atom_frac 0.999999 0.833333 0.390796 Ti
  atom_frac 0.898146 0.833333 0.390797 O
  atom_frac 0.666667 0.666667 0.410148 O
  atom_frac 0.833330 0.666667 0.421208 O
  atom_frac 0.935184 0.833333 0.440560 O
  atom_frac 0.999998 0.666667 0.440560 Ti
  atom_frac 0.833332 0.833333 0.440560 Ti
  atom_frac 0.731479 0.833333 0.440561 O
  atom_frac 0.833333 0.666667 0.459912 O
  atom_frac 0.999996 0.666667 0.470972 O
  atom_frac 0.768517 0.833333 0.490324 O
  atom_frac 0.833331 0.666667 0.490324 Ti
  atom_frac 0.999997 0.833333 0.490324 Ti
  atom_frac 0.898145 0.833333 0.490324 O
  atom_frac 0.999998 0.666667 0.509676 O
  atom_frac 0.833329 0.666667 0.520736 O
  atom_frac 0.935183 0.833333 0.540088 O
  atom_frac 0.999996 0.666667 0.540088 Ti
  atom_frac 0.833330 0.833333 0.540088 Ti
  atom_frac 0.731477 0.833333 0.540088 O
  atom_frac 0.833331 0.666667 0.559440 O
  atom_frac 0.999994 0.666667 0.570500 O
  atom_frac 0.768515 0.833333 0.589851 O
  atom_frac 0.833329 0.666667 0.589852 Ti
  atom_frac 0.999996 0.833333 0.589852 Ti
  atom_frac 0.898143 0.833333 0.589852 O
  atom_frac 0.999997 0.666667 0.609204 O
  atom_frac 0.833327 0.666667 0.620264 O
  atom_frac 0.935181 0.833333 0.639615 O
  atom_frac 0.999995 0.666667 0.639616 Ti
  atom_frac 0.833328 0.833333 0.639616 Ti
  atom_frac 0.731475 0.833333 0.639616 O
  atom_frac 0.833329 0.666667 0.658968 O
  
  -----------------------------------------------------------------------
  Completed first pass over input file geometry.in .
  -----------------------------------------------------------------------
  

  Basic array size parameters:
  | Number of species                 :        3
  | Number of atoms                   :      324
  | Number of lattice vectors         :        3
  | Max. basis fn. angular momentum   :        4
  | Max. atomic/ionic basis occupied n:        4
  | Max. number of basis fn. types    :        3
  | Max. radial fns per species/type  :       18
  | Max. logarithmic grid size        :     1383
  | Max. radial integration grid size :       73
  | Max. angular integration grid size:      434
  | Max. angular grid division number :        8
  | Radial grid for Hartree potential :     1383
  | Number of spin channels           :        2

------------------------------------------------------------
          Reading file control.in.
------------------------------------------------------------
  XC: Using PBE gradient-corrected functionals.
  Scalar relativistic treatment of kinetic energy: ZORA.
  Threshold value for ZORA:   0.100000E-11
  Kohn-Sham eigenvalues and eigenfunctions calculated by LAPACK via ELSI.
  Found k-point grid:         2         4         1
  Spin treatment: Spin density functional theory - collinear spins.
  Initial spin moment per atom:   0.0000
  Mulliken charge analysis will be performed and summarised to the main output.
  Full Mulliken charge analysis will be written to file 'Mulliken.out'.
  Calculating density of states with
  | energy interval :-12.000000 10.000000
  | points & tetrahedron method :  4000
  Found k-point grid multipliers for perturbative DOS :         3         3         3
 
  Reading configuration options for species Ti                  .
  | Found nuclear charge :  22.0000
  | Found atomic mass :    47.8670000000000      amu
  | Found l_max for Hartree potential  :   4
  | Found cutoff potl. onset [A], width [A], scale factor :    3.50000    1.50000    1.00000
  | Threshold for basis-dependent cutoff potential is   0.100000E-03
  | Found data for basic radial integration grid :    48 points, outermost radius =    5.000 A
  | Found multiplier for basic radial grid :   1
  | Found angular grid specification: user-specified.
  | Specified grid contains     5 separate shells.
  | Check grid settings after all constraints further below.
  | Found free-atom valence shell :  4 s   2.000
  | Found free-atom valence shell :  3 p   6.000
  | Found free-atom valence shell :  3 d   2.000
  | Found free-ion valence shell :  4 s   1.000
  | Found free-ion valence shell :  3 p   6.000
  | Found free-ion valence shell :  3 d   1.000
  | Found hydrogenic basis function :  4 f   8.000
  | Found hydrogenic basis function :  3 d   2.700
  | Found ionic basis function :  4 p , default cutoff radius.
  | Found ionic basis function :  4 s , default cutoff radius.
 | Encountered keyword species, ending the description of species Ti                  .
  Species Ti                  : Missing cutoff potential type.
  Defaulting to exp(1/x)/(1-x)^2 type cutoff potential.
  Species Ti: No 'logarithmic' tag. Using default grid for free atom:
  | Default logarithmic grid data [bohr] : 0.1000E-03 0.1000E+03 0.1012E+01
  | Will include ionic basis functions of  2.0-fold positive Ti                   ion.
  Species Ti: On-site basis accuracy parameter (for Gram-Schmidt orthonormalisation) not specified.
  Using default value basis_acc =  0.1000000E-03.
  Species Ti                  : Using default innermost maximum threshold i_radial=  2 for radial functions.
  Species Ti                  : Default cutoff onset for free atom density etc. : 0.35000000E+01 AA.
  Species Ti                  : Basic radial grid will be enhanced according to radial_multiplier =   1, to contain    48 grid points.
 
  Reading configuration options for species O                   .
  | Found nuclear charge :   8.0000
  | Found atomic mass :    15.9994000000000      amu
  | Found l_max for Hartree potential  :   4
  | Found cutoff potl. onset [A], width [A], scale factor :    3.50000    1.50000    1.00000
  | Threshold for basis-dependent cutoff potential is   0.100000E-03
  | Found data for basic radial integration grid :    36 points, outermost radius =    5.000 A
  | Found multiplier for basic radial grid :   1
  | Found angular grid specification: user-specified.
  | Specified grid contains     5 separate shells.
  | Check grid settings after all constraints further below.
  | Found free-atom valence shell :  2 s   2.000
  | Found free-atom valence shell :  2 p   4.000
  | Found free-ion valence shell :  2 s   1.000
  | Found free-ion valence shell :  2 p   3.000
  | Found hydrogenic basis function :  2 p   1.800
  | Found hydrogenic basis function :  3 d   7.600
  | Found hydrogenic basis function :  3 s   6.400
 | Encountered keyword species, ending the description of species O                   .
  Species O                   : Missing cutoff potential type.
  Defaulting to exp(1/x)/(1-x)^2 type cutoff potential.
  Species O : No 'logarithmic' tag. Using default grid for free atom:
  | Default logarithmic grid data [bohr] : 0.1000E-03 0.1000E+03 0.1012E+01
  Species O : On-site basis accuracy parameter (for Gram-Schmidt orthonormalisation) not specified.
  Using default value basis_acc =  0.1000000E-03.
  Species O                   : Using default innermost maximum threshold i_radial=  2 for radial functions.
  Species O                   : Default cutoff onset for free atom density etc. : 0.35000000E+01 AA.
  Species O                   : Basic radial grid will be enhanced according to radial_multiplier =   1, to contain    36 grid points.
 
  Reading configuration options for species O1                  .
  | Found nuclear charge :   8.0000
  | Found atomic mass :    15.9994000000000      amu
  | Found l_max for Hartree potential  :   6
  | Found cutoff potl. onset [A], width [A], scale factor :    4.00000    2.00000    1.00000
  | Threshold for basis-dependent cutoff potential is   0.100000E-03
  | Found data for basic radial integration grid :    36 points, outermost radius =    7.000 A
  | Found multiplier for basic radial grid :   2
  | Found angular grid specification: user-specified.
  | Specified grid contains     6 separate shells.
  | Check grid settings after all constraints further below.
  | Found free-atom valence shell :  2 s   2.000
  | Found free-atom valence shell :  2 p   4.000
  | Found free-ion valence shell :  2 s   1.000
  | Found free-ion valence shell :  2 p   3.000
  | Found hydrogenic basis function :  2 p   1.800
  | Found hydrogenic basis function :  3 d   7.600
  | Found hydrogenic basis function :  3 s   6.400
  | Found hydrogenic basis function :  4 f  11.600
  | Found hydrogenic basis function :  3 p   6.200
  | Found hydrogenic basis function :  3 d   5.600
  | Found hydrogenic basis function :  5 g  17.600
  | Found hydrogenic basis function :  1 s   0.750
  | Found ionic basis function :  2 p , default cutoff radius.
  | Found hydrogenic basis function :  4 f  10.800
  | Found hydrogenic basis function :  4 d   4.700
  | Found hydrogenic basis function :  2 s   6.800
  | Found hydrogenic basis function :  1 s  12.000
  | Found hydrogenic basis function :  1 s  10.000
  | Found hydrogenic basis function :  1 s   6.000
  | Found hydrogenic basis function :  2 s  10.000
  | Found hydrogenic basis function :  2 p   8.000
  | Found hydrogenic basis function :  2 p   6.000
  | Found hydrogenic basis function :  3 d   8.000
  Species O1                  : Missing cutoff potential type.
  Defaulting to exp(1/x)/(1-x)^2 type cutoff potential.
  Species O1: No 'logarithmic' tag. Using default grid for free atom:
  | Default logarithmic grid data [bohr] : 0.1000E-03 0.1000E+03 0.1012E+01
  | Will include ionic basis functions of  2.0-fold positive O1                   ion.
  Species O1: On-site basis accuracy parameter (for Gram-Schmidt orthonormalisation) not specified.
  Using default value basis_acc =  0.1000000E-03.
  Species O1                  : Using default innermost maximum threshold i_radial=  2 for radial functions.
  Species O1                  : Default cutoff onset for free atom density etc. : 0.40000000E+01 AA.
  Species O1                  : Basic radial grid will be enhanced according to radial_multiplier =   2, to contain    73 grid points.
 
  Finished reading input file 'control.in'.
 
------------------------------------------------------------


------------------------------------------------------------
          Reading geometry description geometry.in.
------------------------------------------------------------
  | The smallest distance between any two atoms is         1.95945947 AA.
  | The first atom of this pair is atom number                    290 .
  | The second atom of this pair is atom number                   291 .
  | Wigner-Seitz cell of the first atom image           0     0     0 .
  | (The Wigner-Seitz cell of the second atom is 0 0 0  by definition.)

  Symmetry information by spglib:
  | Precision set to  0.1E-04
  | Number of Operations  : 2
  | Space group           : 6
  | International         : Pm
  | Schoenflies           : Cs^1
  Input structure read successfully.
  The structure contains      324 atoms,  and a total of       4104.000 electrons.

  Input geometry:
  | Unit cell:
  |       19.69838000        0.00000000        0.00000000
  |        0.00000000        8.91864800        0.00000000
  |        0.00000000        0.00000000       65.97617800
  | Atomic structure:
  |       Atom                x [A]            y [A]            z [A]
  |    1: Species O             6.56608070        0.00000000       24.50645546
  |    2: Species O             2.00631940        1.48644431       25.78322646
  |    3: Species Ti            3.28305020        0.00000000       25.78322646
  |    4: Species Ti            6.56610040        1.48644431       25.78322646
  |    5: Species O             4.55978100        1.48644431       25.78329243
  |    6: Species O             0.00000000        0.00000000       27.05999745
  |    7: Species O             3.28301080        0.00000000       27.78969398
  |    8: Species O             5.28936960        1.48644431       29.06646498
  |    9: Species Ti            6.56610040        0.00000000       29.06646498
  |   10: Species Ti            3.28303050        1.48644431       29.06646498
  |   11: Species O             1.27669140        1.48644431       29.06653096
  |   12: Species O             3.28305020        0.00000000       30.34323598
  |   13: Species O             6.56606101        0.00000000       31.07293251
  |   14: Species O             2.00628000        1.48644431       32.34970350
  |   15: Species Ti            3.28301080        0.00000000       32.34970350
  |   16: Species Ti            6.56608070        1.48644431       32.34970350
  |   17: Species O             4.55974161        1.48644431       32.34970350
  |   18: Species O             6.56610040        0.00000000       33.62647450
  |   19: Species O             3.28297141        0.00000000       34.35617103
  |   20: Species O             5.28933020        1.48644431       35.63294202
  |   21: Species Ti            6.56606101        0.00000000       35.63294202
  |   22: Species Ti            3.28299111        1.48644431       35.63294202
  |   23: Species O             1.27665201        1.48644431       35.63294202
  |   24: Species O             3.28301080        0.00000000       36.90971302
  |   25: Species O             6.56602161        0.00000000       37.63940955
  |   26: Species O             2.00624061        1.48644431       38.91611457
  |   27: Species Ti            3.28297141        0.00000000       38.91618055
  |   28: Species Ti            6.56604131        1.48644431       38.91618055
  |   29: Species O             4.55970221        1.48644431       38.91618055
  |   30: Species O             6.56606101        0.00000000       40.19295154
  |   31: Species O             3.28293201        0.00000000       40.92264807
  |   32: Species O             5.28929081        1.48644431       42.19935309
  |   33: Species Ti            6.56602161        0.00000000       42.19941907
  |   34: Species Ti            3.28295171        1.48644431       42.19941907
  |   35: Species O             1.27663231        1.48644431       42.19941907
  |   36: Species O             3.28297141        0.00000000       43.47619006
  |   37: Species O             6.56608070        2.97287969       24.50645546
  |   38: Species O             2.00631940        4.45932400       25.78322646
  |   39: Species Ti            3.28305020        2.97287969       25.78322646
  |   40: Species Ti            6.56610040        4.45932400       25.78322646
  |   41: Species O             4.55978100        4.45932400       25.78329243
  |   42: Species O             0.00000000        2.97287969       27.05999745
  |   43: Species O             3.28301080        2.97287969       27.78969398
  |   44: Species O             5.28936960        4.45932400       29.06646498
  |   45: Species Ti            6.56610040        2.97287969       29.06646498
  |   46: Species Ti            3.28303050        4.45932400       29.06646498
  |   47: Species O             1.27669140        4.45932400       29.06653096
  |   48: Species O             3.28305020        2.97287969       30.34323598
  |   49: Species O             6.56606101        2.97287969       31.07293251
  |   50: Species O             2.00628000        4.45932400       32.34970350
  |   51: Species Ti            3.28301080        2.97287969       32.34970350
  |   52: Species Ti            6.56608070        4.45932400       32.34970350
  |   53: Species O             4.55974161        4.45932400       32.34970350
  |   54: Species O             6.56610040        2.97287969       33.62647450
  |   55: Species O             3.28297141        2.97287969       34.35617103
  |   56: Species O             5.28933020        4.45932400       35.63294202
  |   57: Species Ti            6.56606101        2.97287969       35.63294202
  |   58: Species Ti            3.28299111        4.45932400       35.63294202
  |   59: Species O             1.27665201        4.45932400       35.63294202
  |   60: Species O             3.28301080        2.97287969       36.90971302
  |   61: Species O             6.56602161        2.97287969       37.63940955
  |   62: Species O             2.00624061        4.45932400       38.91611457
  |   63: Species Ti            3.28297141        2.97287969       38.91618055
  |   64: Species Ti            6.56604131        4.45932400       38.91618055
  |   65: Species O             4.55970221        4.45932400       38.91618055
  |   66: Species O             6.56606101        2.97287969       40.19295154
  |   67: Species O             3.28293201        2.97287969       40.92264807
  |   68: Species O             5.28929081        4.45932400       42.19935309
  |   69: Species Ti            6.56602161        2.97287969       42.19941907
  |   70: Species Ti            3.28295171        4.45932400       42.19941907
  |   71: Species O             1.27663231        4.45932400       42.19941907
  |   72: Species O             3.28297141        2.97287969       43.47619006
  |   73: Species O             6.56608070        5.94576831       24.50645546
  |   74: Species O             2.00631940        7.43220369       25.78322646
  |   75: Species Ti            3.28305020        5.94576831       25.78322646
  |   76: Species Ti            6.56610040        7.43220369       25.78322646
  |   77: Species O             4.55978100        7.43220369       25.78329243
  |   78: Species O             0.00000000        5.94576831       27.05999745
  |   79: Species O             3.28301080        5.94576831       27.78969398
  |   80: Species O             5.28936960        7.43220369       29.06646498
  |   81: Species Ti            6.56610040        5.94576831       29.06646498
  |   82: Species Ti            3.28303050        7.43220369       29.06646498
  |   83: Species O             1.27669140        7.43220369       29.06653096
  |   84: Species O             3.28305020        5.94576831       30.34323598
  |   85: Species O             6.56606101        5.94576831       31.07293251
  |   86: Species O             2.00628000        7.43220369       32.34970350
  |   87: Species Ti            3.28301080        5.94576831       32.34970350
  |   88: Species Ti            6.56608070        7.43220369       32.34970350
  |   89: Species O             4.55974161        7.43220369       32.34970350
  |   90: Species O             6.56610040        5.94576831       33.62647450
  |   91: Species O             3.28297141        5.94576831       34.35617103
  |   92: Species O             5.28933020        7.43220369       35.63294202
  |   93: Species Ti            6.56606101        5.94576831       35.63294202
  |   94: Species Ti            3.28299111        7.43220369       35.63294202
  |   95: Species O             1.27665201        7.43220369       35.63294202
  |   96: Species O             3.28301080        5.94576831       36.90971302
  |   97: Species O             6.56602161        5.94576831       37.63940955
  |   98: Species O             2.00624061        7.43220369       38.91611457
  |   99: Species Ti            3.28297141        5.94576831       38.91618055
  |  100: Species Ti            6.56604131        7.43220369       38.91618055
  |  101: Species O             4.55970221        7.43220369       38.91618055
  |  102: Species O             6.56606101        5.94576831       40.19295154
  |  103: Species O             3.28293201        5.94576831       40.92264807
  |  104: Species O             5.28929081        7.43220369       42.19935309
  |  105: Species Ti            6.56602161        5.94576831       42.19941907
  |  106: Species Ti            3.28295171        7.43220369       42.19941907
  |  107: Species O             1.27663231        7.43220369       42.19941907
  |  108: Species O             3.28297141        5.94576831       43.47619006
  |  109: Species O            13.13222050        0.00000000       24.50645546
  |  110: Species O             8.57243950        1.48644431       25.78322646
  |  111: Species Ti            9.84917030        0.00000000       25.78322646
  |  112: Species Ti           13.13224020        1.48644431       25.78322646
  |  113: Species O            11.12590110        1.48644431       25.78329243
  |  114: Species O             6.56613980        0.00000000       27.05999745
  |  115: Species O             9.84913090        0.00000000       27.78969398
  |  116: Species O            11.85548970        1.48644431       29.06646498
  |  117: Species Ti           13.13222050        0.00000000       29.06646498
  |  118: Species Ti            9.84915060        1.48644431       29.06646498
  |  119: Species O             7.84281151        1.48644431       29.06653096
  |  120: Species O             9.84917030        0.00000000       30.34323598
  |  121: Species O            13.13218111        0.00000000       31.07293251
  |  122: Species O             8.57240010        1.48644431       32.34970350
  |  123: Species Ti            9.84913090        0.00000000       32.34970350
  |  124: Species Ti           13.13220080        1.48644431       32.34970350
  |  125: Species O            11.12586171        1.48644431       32.34970350
  |  126: Species O            13.13222050        0.00000000       33.62647450
  |  127: Species O             9.84909151        0.00000000       34.35617103
  |  128: Species O            11.85545030        1.48644431       35.63294202
  |  129: Species Ti           13.13218111        0.00000000       35.63294202
  |  130: Species Ti            9.84911121        1.48644431       35.63294202
  |  131: Species O             7.84279181        1.48644431       35.63294202
  |  132: Species O             9.84915060        0.00000000       36.90971302
  |  133: Species O            13.13214171        0.00000000       37.63940955
  |  134: Species O             8.57238041        1.48644431       38.91611457
  |  135: Species Ti            9.84911121        0.00000000       38.91618055
  |  136: Species Ti           13.13216141        1.48644431       38.91618055
  |  137: Species O            11.12582231        1.48644431       38.91618055
  |  138: Species O            13.13218111        0.00000000       40.19295154
  |  139: Species O             9.84905211        0.00000000       40.92264807
  |  140: Species O            11.85541091        1.48644431       42.19935309
  |  141: Species Ti           13.13214171        0.00000000       42.19941907
  |  142: Species Ti            9.84909151        1.48644431       42.19941907
  |  143: Species O             7.84275241        1.48644431       42.19941907
  |  144: Species O             9.84911121        0.00000000       43.47619006
  |  145: Species O            13.13222050        2.97287969       24.50645546
  |  146: Species O             8.57243950        4.45932400       25.78322646
  |  147: Species Ti            9.84917030        2.97287969       25.78322646
  |  148: Species Ti           13.13224020        4.45932400       25.78322646
  |  149: Species O            11.12590110        4.45932400       25.78329243
  |  150: Species O             6.56613980        2.97287969       27.05999745
  |  151: Species O             9.84913090        2.97287969       27.78969398
  |  152: Species O            11.85548970        4.45932400       29.06646498
  |  153: Species Ti           13.13222050        2.97287969       29.06646498
  |  154: Species Ti            9.84915060        4.45932400       29.06646498
  |  155: Species O             7.84281151        4.45932400       29.06653096
  |  156: Species O             9.84917030        2.97287969       30.34323598
  |  157: Species O            13.13218111        2.97287969       31.07293251
  |  158: Species O             8.57240010        4.45932400       32.34970350
  |  159: Species Ti            9.84913090        2.97287969       32.34970350
  |  160: Species Ti           13.13220080        4.45932400       32.34970350
  |  161: Species O            11.12586171        4.45932400       32.34970350
  |  162: Species O            13.13222050        2.97287969       33.62647450
  |  163: Species O             9.84909151        2.97287969       34.35617103
  |  164: Species O            11.85545030        4.45932400       35.63294202
  |  165: Species Ti           13.13218111        2.97287969       35.63294202
  |  166: Species Ti            9.84911121        4.45932400       35.63294202
  |  167: Species O             7.84279181        4.45932400       35.63294202
  |  168: Species O             9.84915060        2.97287969       36.90971302
  |  169: Species O            13.13214171        2.97287969       37.63940955
  |  170: Species O             8.57238041        4.45932400       38.91611457
  |  171: Species Ti            9.84911121        2.97287969       38.91618055
  |  172: Species Ti           13.13216141        4.45932400       38.91618055
  |  173: Species O            11.12582231        4.45932400       38.91618055
  |  174: Species O            13.13218111        2.97287969       40.19295154
  |  175: Species O             9.84905211        2.97287969       40.92264807
  |  176: Species O            11.85541091        4.45932400       42.19935309
  |  177: Species Ti           13.13214171        2.97287969       42.19941907
  |  178: Species Ti            9.84909151        4.45932400       42.19941907
  |  179: Species O             7.84275241        4.45932400       42.19941907
  |  180: Species O             9.84911121        2.97287969       43.47619006
  |  181: Species O            13.13222050        5.94576831       24.50645546
  |  182: Species O             8.57243950        7.43220369       25.78322646
  |  183: Species Ti            9.84917030        5.94576831       25.78322646
  |  184: Species Ti           13.13224020        7.43220369       25.78322646
  |  185: Species O            11.12590110        7.43220369       25.78329243
  |  186: Species O             6.56613980        5.94576831       27.05999745
  |  187: Species O             9.84913090        5.94576831       27.78969398
  |  188: Species O            11.85548970        7.43220369       29.06646498
  |  189: Species Ti           13.13222050        5.94576831       29.06646498
  |  190: Species Ti            9.84915060        7.43220369       29.06646498
  |  191: Species O             7.84281151        7.43220369       29.06653096
  |  192: Species O             9.84917030        5.94576831       30.34323598
  |  193: Species O            13.13218111        5.94576831       31.07293251
  |  194: Species O             8.57240010        7.43220369       32.34970350
  |  195: Species Ti            9.84913090        5.94576831       32.34970350
  |  196: Species Ti           13.13220080        7.43220369       32.34970350
  |  197: Species O            11.12586171        7.43220369       32.34970350
  |  198: Species O            13.13222050        5.94576831       33.62647450
  |  199: Species O             9.84909151        5.94576831       34.35617103
  |  200: Species O            11.85545030        7.43220369       35.63294202
  |  201: Species Ti           13.13218111        5.94576831       35.63294202
  |  202: Species Ti            9.84911121        7.43220369       35.63294202
  |  203: Species O             7.84279181        7.43220369       35.63294202
  |  204: Species O             9.84915060        5.94576831       36.90971302
  |  205: Species O            13.13214171        5.94576831       37.63940955
  |  206: Species O             8.57238041        7.43220369       38.91611457
  |  207: Species Ti            9.84911121        5.94576831       38.91618055
  |  208: Species Ti           13.13216141        7.43220369       38.91618055
  |  209: Species O            11.12582231        7.43220369       38.91618055
  |  210: Species O            13.13218111        5.94576831       40.19295154
  |  211: Species O             9.84905211        5.94576831       40.92264807
  |  212: Species O            11.85541091        7.43220369       42.19935309
  |  213: Species Ti           13.13214171        5.94576831       42.19941907
  |  214: Species Ti            9.84909151        7.43220369       42.19941907
  |  215: Species O             7.84275241        7.43220369       42.19941907
  |  216: Species O             9.84911121        5.94576831       43.47619006
  |  217: Species O            19.69834060        0.00000000       24.50645546
  |  218: Species O            15.13857930        1.48644431       25.78322646
  |  219: Species Ti           16.41529040        0.00000000       25.78322646
  |  220: Species Ti           19.69836030        1.48644431       25.78322646
  |  221: Species O            17.69202120        1.48644431       25.78329243
  |  222: Species O            13.13225990        0.00000000       27.05999745
  |  223: Species O            16.41525101        0.00000000       27.78969398
  |  224: Species O            18.42160980        1.48644431       29.06646498
  |  225: Species Ti           19.69834060        0.00000000       29.06646498
  |  226: Species Ti           16.41529040        1.48644431       29.06646498
  |  227: Species O            14.40895130        1.48644431       29.06653096
  |  228: Species O            16.41531010        0.00000000       30.34323598
  |  229: Species O            19.69830121        0.00000000       31.07293251
  |  230: Species O            15.13853990        1.48644431       32.34970350
  |  231: Species Ti           16.41527070        0.00000000       32.34970350
  |  232: Species Ti           19.69832090        1.48644431       32.34970350
  |  233: Species O            17.69200151        1.48644431       32.34970350
  |  234: Species O            19.69834060        0.00000000       33.62647450
  |  235: Species O            16.41523131        0.00000000       34.35617103
  |  236: Species O            18.42159010        1.48644431       35.63294202
  |  237: Species Ti           19.69830121        0.00000000       35.63294202
  |  238: Species Ti           16.41525101        1.48644431       35.63294202
  |  239: Species O            14.40891191        1.48644431       35.63294202
  |  240: Species O            16.41527070        0.00000000       36.90971302
  |  241: Species O            19.69826181        0.00000000       37.63940955
  |  242: Species O            15.13850051        1.48644431       38.91611457
  |  243: Species Ti           16.41523131        0.00000000       38.91618055
  |  244: Species Ti           19.69830121        1.48644431       38.91618055
  |  245: Species O            17.69196211        1.48644431       38.91618055
  |  246: Species O            19.69832090        0.00000000       40.19295154
  |  247: Species O            16.41519191        0.00000000       40.92264807
  |  248: Species O            18.42155071        1.48644431       42.19935309
  |  249: Species Ti           19.69828151        0.00000000       42.19941907
  |  250: Species Ti           16.41521161        1.48644431       42.19941907
  |  251: Species O            14.40887251        1.48644431       42.19941907
  |  252: Species O            16.41523131        0.00000000       43.47619006
  |  253: Species O            19.69834060        2.97287969       24.50645546
  |  254: Species O            15.13857930        4.45932400       25.78322646
  |  255: Species Ti           16.41529040        2.97287969       25.78322646
  |  256: Species Ti           19.69836030        4.45932400       25.78322646
  |  257: Species O            17.69202120        4.45932400       25.78329243
  |  258: Species O            13.13225990        2.97287969       27.05999745
  |  259: Species O            16.41525101        2.97287969       27.78969398
  |  260: Species O            18.42160980        4.45932400       29.06646498
  |  261: Species Ti           19.69834060        2.97287969       29.06646498
  |  262: Species Ti           16.41529040        4.45932400       29.06646498
  |  263: Species O            14.40895130        4.45932400       29.06653096
  |  264: Species O            16.41531010        2.97287969       30.34323598
  |  265: Species O            19.69830121        2.97287969       31.07293251
  |  266: Species O            15.13853990        4.45932400       32.34970350
  |  267: Species Ti           16.41527070        2.97287969       32.34970350
  |  268: Species Ti           19.69832090        4.45932400       32.34970350
  |  269: Species O            17.69200151        4.45932400       32.34970350
  |  270: Species O            19.69834060        2.97287969       33.62647450
  |  271: Species O            16.41523131        2.97287969       34.35617103
  |  272: Species O            18.42159010        4.45932400       35.63294202
  |  273: Species Ti           19.69830121        2.97287969       35.63294202
  |  274: Species Ti           16.41525101        4.45932400       35.63294202
  |  275: Species O            14.40891191        4.45932400       35.63294202
  |  276: Species O            16.41527070        2.97287969       36.90971302
  |  277: Species O            19.69826181        2.97287969       37.63940955
  |  278: Species O            15.13850051        4.45932400       38.91611457
  |  279: Species Ti           16.41523131        2.97287969       38.91618055
  |  280: Species Ti           19.69830121        4.45932400       38.91618055
  |  281: Species O            17.69196211        4.45932400       38.91618055
  |  282: Species O            19.69832090        2.97287969       40.19295154
  |  283: Species O            16.41519191        2.97287969       40.92264807
  |  284: Species O            18.42155071        4.45932400       42.19935309
  |  285: Species Ti           19.69828151        2.97287969       42.19941907
  |  286: Species Ti           16.41521161        4.45932400       42.19941907
  |  287: Species O            14.40887251        4.45932400       42.19941907
  |  288: Species O            16.41523131        2.97287969       43.47619006
  |  289: Species O            19.69834060        5.94576831       24.50645546
  |  290: Species O            15.13857930        7.43220369       25.78322646
  |  291: Species Ti           16.41529040        5.94576831       25.78322646
  |  292: Species Ti           19.69836030        7.43220369       25.78322646
  |  293: Species O            17.69202120        7.43220369       25.78329243
  |  294: Species O            13.13225990        5.94576831       27.05999745
  |  295: Species O            16.41525101        5.94576831       27.78969398
  |  296: Species O            18.42160980        7.43220369       29.06646498
  |  297: Species Ti           19.69834060        5.94576831       29.06646498
  |  298: Species Ti           16.41529040        7.43220369       29.06646498
  |  299: Species O            14.40895130        7.43220369       29.06653096
  |  300: Species O            16.41531010        5.94576831       30.34323598
  |  301: Species O            19.69830121        5.94576831       31.07293251
  |  302: Species O            15.13853990        7.43220369       32.34970350
  |  303: Species Ti           16.41527070        5.94576831       32.34970350
  |  304: Species Ti           19.69832090        7.43220369       32.34970350
  |  305: Species O            17.69200151        7.43220369       32.34970350
  |  306: Species O            19.69834060        5.94576831       33.62647450
  |  307: Species O            16.41523131        5.94576831       34.35617103
  |  308: Species O            18.42159010        7.43220369       35.63294202
  |  309: Species Ti           19.69830121        5.94576831       35.63294202
  |  310: Species Ti           16.41525101        7.43220369       35.63294202
  |  311: Species O            14.40891191        7.43220369       35.63294202
  |  312: Species O            16.41527070        5.94576831       36.90971302
  |  313: Species O            19.69826181        5.94576831       37.63940955
  |  314: Species O            15.13850051        7.43220369       38.91611457
  |  315: Species Ti           16.41523131        5.94576831       38.91618055
  |  316: Species Ti           19.69830121        7.43220369       38.91618055
  |  317: Species O            17.69196211        7.43220369       38.91618055
  |  318: Species O            19.69832090        5.94576831       40.19295154
  |  319: Species O            16.41519191        5.94576831       40.92264807
  |  320: Species O            18.42155071        7.43220369       42.19935309
  |  321: Species Ti           19.69828151        5.94576831       42.19941907
  |  322: Species Ti           16.41521161        7.43220369       42.19941907
  |  323: Species O            14.40887251        7.43220369       42.19941907
  |  324: Species O            16.41523131        5.94576831       43.47619006

  Lattice parameters for 3D lattice (in Angstroms) :    19.698380    8.918648   65.976178
  Angle(s) between unit vectors (in degrees)       :    90.000000   90.000000   90.000000


  Quantities derived from the lattice vectors (in Angstrom^-1):
  | Reciprocal lattice vector 1:  0.318970  0.000000  0.000000
  | Reciprocal lattice vector 2:  0.000000  0.704500  0.000000
  | Reciprocal lattice vector 3:  0.000000  0.000000  0.095234
  | Unit cell volume                               :   0.115909E+05  Angstrom^3

  Fractional coordinates:
                         L1                L2                L3
       atom_frac         0.33333100        0.00000000        0.37144400  O
       atom_frac         0.10185200        0.16666700        0.39079600  O
       atom_frac         0.16666600        0.00000000        0.39079600  Ti
       atom_frac         0.33333200        0.16666700        0.39079600  Ti
       atom_frac         0.23148000        0.16666700        0.39079700  O
       atom_frac         0.00000000        0.00000000        0.41014800  O
       atom_frac         0.16666400        0.00000000        0.42120800  O
       atom_frac         0.26851800        0.16666700        0.44056000  O
       atom_frac         0.33333200        0.00000000        0.44056000  Ti
       atom_frac         0.16666500        0.16666700        0.44056000  Ti
       atom_frac         0.06481200        0.16666700        0.44056100  O
       atom_frac         0.16666600        0.00000000        0.45991200  O
       atom_frac         0.33333000        0.00000000        0.47097200  O
       atom_frac         0.10185000        0.16666700        0.49032400  O
       atom_frac         0.16666400        0.00000000        0.49032400  Ti
       atom_frac         0.33333100        0.16666700        0.49032400  Ti
       atom_frac         0.23147800        0.16666700        0.49032400  O
       atom_frac         0.33333200        0.00000000        0.50967600  O
       atom_frac         0.16666200        0.00000000        0.52073600  O
       atom_frac         0.26851600        0.16666700        0.54008800  O
       atom_frac         0.33333000        0.00000000        0.54008800  Ti
       atom_frac         0.16666300        0.16666700        0.54008800  Ti
       atom_frac         0.06481000        0.16666700        0.54008800  O
       atom_frac         0.16666400        0.00000000        0.55944000  O
       atom_frac         0.33332800        0.00000000        0.57050000  O
       atom_frac         0.10184800        0.16666700        0.58985100  O
       atom_frac         0.16666200        0.00000000        0.58985200  Ti
       atom_frac         0.33332900        0.16666700        0.58985200  Ti
       atom_frac         0.23147600        0.16666700        0.58985200  O
       atom_frac         0.33333000        0.00000000        0.60920400  O
       atom_frac         0.16666000        0.00000000        0.62026400  O
       atom_frac         0.26851400        0.16666700        0.63961500  O
       atom_frac         0.33332800        0.00000000        0.63961600  Ti
       atom_frac         0.16666100        0.16666700        0.63961600  Ti
       atom_frac         0.06480900        0.16666700        0.63961600  O
       atom_frac         0.16666200        0.00000000        0.65896800  O
       atom_frac         0.33333100        0.33333300        0.37144400  O
       atom_frac         0.10185200        0.50000000        0.39079600  O
       atom_frac         0.16666600        0.33333300        0.39079600  Ti
       atom_frac         0.33333200        0.50000000        0.39079600  Ti
       atom_frac         0.23148000        0.50000000        0.39079700  O
       atom_frac         0.00000000        0.33333300        0.41014800  O
       atom_frac         0.16666400        0.33333300        0.42120800  O
       atom_frac         0.26851800        0.50000000        0.44056000  O
       atom_frac         0.33333200        0.33333300        0.44056000  Ti
       atom_frac         0.16666500        0.50000000        0.44056000  Ti
       atom_frac         0.06481200        0.50000000        0.44056100  O
       atom_frac         0.16666600        0.33333300        0.45991200  O
       atom_frac         0.33333000        0.33333300        0.47097200  O
       atom_frac         0.10185000        0.50000000        0.49032400  O
       atom_frac         0.16666400        0.33333300        0.49032400  Ti
       atom_frac         0.33333100        0.50000000        0.49032400  Ti
       atom_frac         0.23147800        0.50000000        0.49032400  O
       atom_frac         0.33333200        0.33333300        0.50967600  O
       atom_frac         0.16666200        0.33333300        0.52073600  O
       atom_frac         0.26851600        0.50000000        0.54008800  O
       atom_frac         0.33333000        0.33333300        0.54008800  Ti
       atom_frac         0.16666300        0.50000000        0.54008800  Ti
       atom_frac         0.06481000        0.50000000        0.54008800  O
       atom_frac         0.16666400        0.33333300        0.55944000  O
       atom_frac         0.33332800        0.33333300        0.57050000  O
       atom_frac         0.10184800        0.50000000        0.58985100  O
       atom_frac         0.16666200        0.33333300        0.58985200  Ti
       atom_frac         0.33332900        0.50000000        0.58985200  Ti
       atom_frac         0.23147600        0.50000000        0.58985200  O
       atom_frac         0.33333000        0.33333300        0.60920400  O
       atom_frac         0.16666000        0.33333300        0.62026400  O
       atom_frac         0.26851400        0.50000000        0.63961500  O
       atom_frac         0.33332800        0.33333300        0.63961600  Ti
       atom_frac         0.16666100        0.50000000        0.63961600  Ti
       atom_frac         0.06480900        0.50000000        0.63961600  O
       atom_frac         0.16666200        0.33333300        0.65896800  O
       atom_frac         0.33333100        0.66666700        0.37144400  O
       atom_frac         0.10185200        0.83333300        0.39079600  O
       atom_frac         0.16666600        0.66666700        0.39079600  Ti
       atom_frac         0.33333200        0.83333300        0.39079600  Ti
       atom_frac         0.23148000        0.83333300        0.39079700  O
       atom_frac         0.00000000        0.66666700        0.41014800  O
       atom_frac         0.16666400        0.66666700        0.42120800  O
       atom_frac         0.26851800        0.83333300        0.44056000  O
       atom_frac         0.33333200        0.66666700        0.44056000  Ti
       atom_frac         0.16666500        0.83333300        0.44056000  Ti
       atom_frac         0.06481200        0.83333300        0.44056100  O
       atom_frac         0.16666600        0.66666700        0.45991200  O
       atom_frac         0.33333000        0.66666700        0.47097200  O
       atom_frac         0.10185000        0.83333300        0.49032400  O
       atom_frac         0.16666400        0.66666700        0.49032400  Ti
       atom_frac         0.33333100        0.83333300        0.49032400  Ti
       atom_frac         0.23147800        0.83333300        0.49032400  O
       atom_frac         0.33333200        0.66666700        0.50967600  O
       atom_frac         0.16666200        0.66666700        0.52073600  O
       atom_frac         0.26851600        0.83333300        0.54008800  O
       atom_frac         0.33333000        0.66666700        0.54008800  Ti
       atom_frac         0.16666300        0.83333300        0.54008800  Ti
       atom_frac         0.06481000        0.83333300        0.54008800  O
       atom_frac         0.16666400        0.66666700        0.55944000  O
       atom_frac         0.33332800        0.66666700        0.57050000  O
       atom_frac         0.10184800        0.83333300        0.58985100  O
       atom_frac         0.16666200        0.66666700        0.58985200  Ti
       atom_frac         0.33332900        0.83333300        0.58985200  Ti
       atom_frac         0.23147600        0.83333300        0.58985200  O
       atom_frac         0.33333000        0.66666700        0.60920400  O
       atom_frac         0.16666000        0.66666700        0.62026400  O
       atom_frac         0.26851400        0.83333300        0.63961500  O
       atom_frac         0.33332800        0.66666700        0.63961600  Ti
       atom_frac         0.16666100        0.83333300        0.63961600  Ti
       atom_frac         0.06480900        0.83333300        0.63961600  O
       atom_frac         0.16666200        0.66666700        0.65896800  O
       atom_frac         0.66666500        0.00000000        0.37144400  O
       atom_frac         0.43518500        0.16666700        0.39079600  O
       atom_frac         0.49999900        0.00000000        0.39079600  Ti
       atom_frac         0.66666600        0.16666700        0.39079600  Ti
       atom_frac         0.56481300        0.16666700        0.39079700  O
       atom_frac         0.33333400        0.00000000        0.41014800  O
       atom_frac         0.49999700        0.00000000        0.42120800  O
       atom_frac         0.60185100        0.16666700        0.44056000  O
       atom_frac         0.66666500        0.00000000        0.44056000  Ti
       atom_frac         0.49999800        0.16666700        0.44056000  Ti
       atom_frac         0.39814500        0.16666700        0.44056100  O
       atom_frac         0.49999900        0.00000000        0.45991200  O
       atom_frac         0.66666300        0.00000000        0.47097200  O
       atom_frac         0.43518300        0.16666700        0.49032400  O
       atom_frac         0.49999700        0.00000000        0.49032400  Ti
       atom_frac         0.66666400        0.16666700        0.49032400  Ti
       atom_frac         0.56481100        0.16666700        0.49032400  O
       atom_frac         0.66666500        0.00000000        0.50967600  O
       atom_frac         0.49999500        0.00000000        0.52073600  O
       atom_frac         0.60184900        0.16666700        0.54008800  O
       atom_frac         0.66666300        0.00000000        0.54008800  Ti
       atom_frac         0.49999600        0.16666700        0.54008800  Ti
       atom_frac         0.39814400        0.16666700        0.54008800  O
       atom_frac         0.49999800        0.00000000        0.55944000  O
       atom_frac         0.66666100        0.00000000        0.57050000  O
       atom_frac         0.43518200        0.16666700        0.58985100  O
       atom_frac         0.49999600        0.00000000        0.58985200  Ti
       atom_frac         0.66666200        0.16666700        0.58985200  Ti
       atom_frac         0.56480900        0.16666700        0.58985200  O
       atom_frac         0.66666300        0.00000000        0.60920400  O
       atom_frac         0.49999300        0.00000000        0.62026400  O
       atom_frac         0.60184700        0.16666700        0.63961500  O
       atom_frac         0.66666100        0.00000000        0.63961600  Ti
       atom_frac         0.49999500        0.16666700        0.63961600  Ti
       atom_frac         0.39814200        0.16666700        0.63961600  O
       atom_frac         0.49999600        0.00000000        0.65896800  O
       atom_frac         0.66666500        0.33333300        0.37144400  O
       atom_frac         0.43518500        0.50000000        0.39079600  O
       atom_frac         0.49999900        0.33333300        0.39079600  Ti
       atom_frac         0.66666600        0.50000000        0.39079600  Ti
       atom_frac         0.56481300        0.50000000        0.39079700  O
       atom_frac         0.33333400        0.33333300        0.41014800  O
       atom_frac         0.49999700        0.33333300        0.42120800  O
       atom_frac         0.60185100        0.50000000        0.44056000  O
       atom_frac         0.66666500        0.33333300        0.44056000  Ti
       atom_frac         0.49999800        0.50000000        0.44056000  Ti
       atom_frac         0.39814500        0.50000000        0.44056100  O
       atom_frac         0.49999900        0.33333300        0.45991200  O
       atom_frac         0.66666300        0.33333300        0.47097200  O
       atom_frac         0.43518300        0.50000000        0.49032400  O
       atom_frac         0.49999700        0.33333300        0.49032400  Ti
       atom_frac         0.66666400        0.50000000        0.49032400  Ti
       atom_frac         0.56481100        0.50000000        0.49032400  O
       atom_frac         0.66666500        0.33333300        0.50967600  O
       atom_frac         0.49999500        0.33333300        0.52073600  O
       atom_frac         0.60184900        0.50000000        0.54008800  O
       atom_frac         0.66666300        0.33333300        0.54008800  Ti
       atom_frac         0.49999600        0.50000000        0.54008800  Ti
       atom_frac         0.39814400        0.50000000        0.54008800  O
       atom_frac         0.49999800        0.33333300        0.55944000  O
       atom_frac         0.66666100        0.33333300        0.57050000  O
       atom_frac         0.43518200        0.50000000        0.58985100  O
       atom_frac         0.49999600        0.33333300        0.58985200  Ti
       atom_frac         0.66666200        0.50000000        0.58985200  Ti
       atom_frac         0.56480900        0.50000000        0.58985200  O
       atom_frac         0.66666300        0.33333300        0.60920400  O
       atom_frac         0.49999300        0.33333300        0.62026400  O
       atom_frac         0.60184700        0.50000000        0.63961500  O
       atom_frac         0.66666100        0.33333300        0.63961600  Ti
       atom_frac         0.49999500        0.50000000        0.63961600  Ti
       atom_frac         0.39814200        0.50000000        0.63961600  O
       atom_frac         0.49999600        0.33333300        0.65896800  O
       atom_frac         0.66666500        0.66666700        0.37144400  O
       atom_frac         0.43518500        0.83333300        0.39079600  O
       atom_frac         0.49999900        0.66666700        0.39079600  Ti
       atom_frac         0.66666600        0.83333300        0.39079600  Ti
       atom_frac         0.56481300        0.83333300        0.39079700  O
       atom_frac         0.33333400        0.66666700        0.41014800  O
       atom_frac         0.49999700        0.66666700        0.42120800  O
       atom_frac         0.60185100        0.83333300        0.44056000  O
       atom_frac         0.66666500        0.66666700        0.44056000  Ti
       atom_frac         0.49999800        0.83333300        0.44056000  Ti
       atom_frac         0.39814500        0.83333300        0.44056100  O
       atom_frac         0.49999900        0.66666700        0.45991200  O
       atom_frac         0.66666300        0.66666700        0.47097200  O
[...]
  |    53   -0.000000    0.000000   -0.000000    0.000000
  |    54   -0.000000   -0.000000    0.000000    0.000000
  |    55    0.000000    0.000000    0.000000    0.000000
  |    56   -0.000000   -0.000000   -0.000000    0.000000
  |    57   -0.000000    0.000000   -0.000000    0.000000   -0.000000
  |    58    0.000000   -0.000000    0.000000    0.000000    0.000000
  |    59    0.000000    0.000000    0.000000    0.000000
  |    60   -0.000000   -0.000000   -0.000000    0.000000
  |    61    0.000000    0.000000    0.000000   -0.000000
  |    62    0.000000    0.000000    0.000000   -0.000000
  |    63   -0.000000   -0.000000    0.000000    0.000000   -0.000000
  |    64    0.000000    0.000000    0.000000   -0.000000   -0.000000
  |    65   -0.000000   -0.000000   -0.000000    0.000000
  |    66    0.000000    0.000000    0.000000    0.000000
  |    67    0.000000   -0.000000    0.000000   -0.000000
  |    68    0.000000   -0.000000    0.000000   -0.000000
  |    69    0.000000    0.000000    0.000000   -0.000000    0.000000
  |    70   -0.000000    0.000000   -0.000000   -0.000000    0.000000
  |    71    0.000000   -0.000000    0.000000   -0.000000
  |    72    0.000000   -0.000000    0.000000    0.000000
  |    73    0.000000    0.000000   -0.000000    0.000000
  |    74    0.000000    0.000000    0.000000    0.000000
  |    75    0.000000   -0.000000    0.000000    0.000000   -0.000000
  |    76   -0.000000    0.000000   -0.000000   -0.000000    0.000000
  |    77    0.000000   -0.000000    0.000000    0.000000
  |    78   -0.000000   -0.000000   -0.000000    0.000000
  |    79    0.000000    0.000000   -0.000000   -0.000000
  |    80   -0.000000    0.000000   -0.000000    0.000000
  |    81   -0.000000   -0.000000   -0.000000   -0.000000    0.000000
  |    82   -0.000000   -0.000000   -0.000000   -0.000000   -0.000000
  |    83    0.000000    0.000000   -0.000000   -0.000000
  |    84    0.000000   -0.000000    0.000000   -0.000000
  |    85    0.000000    0.000000    0.000000   -0.000000
  |    86   -0.000000    0.000000   -0.000000    0.000000
  |    87   -0.000000    0.000000   -0.000000   -0.000000   -0.000000
  |    88    0.000000    0.000000    0.000000   -0.000000    0.000000
  |    89   -0.000000   -0.000000   -0.000000   -0.000000
  |    90    0.000000   -0.000000    0.000000    0.000000
  |    91    0.000000    0.000000    0.000000    0.000000
  |    92    0.000000    0.000000    0.000000    0.000000
  |    93   -0.000000   -0.000000   -0.000000    0.000000    0.000000
  |    94   -0.000000   -0.000000   -0.000000    0.000000   -0.000000
  |    95    0.000000   -0.000000    0.000000    0.000000
  |    96   -0.000000   -0.000000   -0.000000    0.000000
  |    97   -0.000000    0.000000   -0.000000    0.000000
  |    98   -0.000000   -0.000000   -0.000000    0.000000
  |    99    0.000000    0.000000   -0.000000    0.000000    0.000000
  |   100    0.000000    0.000000   -0.000000    0.000000    0.000000
  |   101   -0.000000   -0.000000    0.000000    0.000000
  |   102    0.000000    0.000000   -0.000000    0.000000
  |   103    0.000000    0.000000   -0.000000    0.000000
  |   104    0.000000    0.000000    0.000000   -0.000000
  |   105    0.000000    0.000000    0.000000   -0.000000   -0.000000
  |   106   -0.000000   -0.000000    0.000000   -0.000000    0.000000
  |   107    0.000000   -0.000000    0.000000   -0.000000
  |   108    0.000000   -0.000000    0.000000   -0.000000
  |   109    0.000000    0.000000    0.000000   -0.000000
  |   110   -0.000000   -0.000000    0.000000    0.000000
  |   111    0.000000   -0.000000    0.000000    0.000000    0.000000
  |   112    0.000000    0.000000    0.000000    0.000000    0.000000
  |   113   -0.000000   -0.000000    0.000000   -0.000000
  |   114    0.000000    0.000000   -0.000000   -0.000000
  |   115    0.000000   -0.000000    0.000000   -0.000000
  |   116    0.000000    0.000000    0.000000   -0.000000
  |   117   -0.000000    0.000000   -0.000000    0.000000    0.000000
  |   118    0.000000   -0.000000    0.000000    0.000000   -0.000000
  |   119    0.000000    0.000000   -0.000000   -0.000000
  |   120    0.000000    0.000000    0.000000   -0.000000
  |   121    0.000000    0.000000    0.000000    0.000000
  |   122    0.000000    0.000000   -0.000000   -0.000000
  |   123    0.000000   -0.000000    0.000000   -0.000000    0.000000
  |   124    0.000000    0.000000    0.000000    0.000000   -0.000000
  |   125   -0.000000   -0.000000   -0.000000    0.000000
  |   126    0.000000    0.000000    0.000000    0.000000
  |   127    0.000000    0.000000    0.000000   -0.000000
  |   128    0.000000    0.000000    0.000000    0.000000
  |   129   -0.000000   -0.000000    0.000000    0.000000    0.000000
  |   130   -0.000000    0.000000   -0.000000   -0.000000    0.000000
  |   131    0.000000    0.000000    0.000000    0.000000
  |   132    0.000000    0.000000   -0.000000    0.000000
  |   133   -0.000000   -0.000000    0.000000    0.000000
  |   134    0.000000    0.000000    0.000000    0.000000
  |   135    0.000000    0.000000   -0.000000    0.000000    0.000000
  |   136    0.000000   -0.000000   -0.000000    0.000000   -0.000000
  |   137    0.000000   -0.000000    0.000000    0.000000
  |   138   -0.000000   -0.000000   -0.000000   -0.000000
  |   139   -0.000000    0.000000   -0.000000    0.000000
  |   140   -0.000000   -0.000000   -0.000000    0.000000
  |   141    0.000000    0.000000    0.000000    0.000000    0.000000
  |   142   -0.000000   -0.000000    0.000000   -0.000000    0.000000
  |   143   -0.000000    0.000000   -0.000000   -0.000000
  |   144    0.000000   -0.000000    0.000000    0.000000
  |   145    0.000000   -0.000000    0.000000   -0.000000
  |   146    0.000000   -0.000000    0.000000    0.000000
  |   147    0.000000    0.000000    0.000000    0.000000    0.000000
  |   148    0.000000    0.000000   -0.000000    0.000000   -0.000000
  |   149    0.000000    0.000000    0.000000    0.000000
  |   150   -0.000000    0.000000   -0.000000    0.000000
  |   151    0.000000    0.000000    0.000000    0.000000
  |   152   -0.000000   -0.000000   -0.000000   -0.000000
  |   153    0.000000    0.000000   -0.000000    0.000000    0.000000
  |   154    0.000000    0.000000   -0.000000    0.000000    0.000000
  |   155   -0.000000   -0.000000    0.000000   -0.000000
  |   156    0.000000    0.000000    0.000000   -0.000000
  |   157    0.000000    0.000000    0.000000    0.000000
  |   158   -0.000000   -0.000000   -0.000000   -0.000000
  |   159    0.000000    0.000000   -0.000000    0.000000    0.000000
  |   160   -0.000000   -0.000000   -0.000000    0.000000   -0.000000
  |   161   -0.000000   -0.000000   -0.000000    0.000000
  |   162    0.000000   -0.000000    0.000000   -0.000000
  |   163   -0.000000    0.000000   -0.000000    0.000000
  |   164   -0.000000   -0.000000    0.000000    0.000000
  |   165   -0.000000   -0.000000   -0.000000    0.000000   -0.000000
  |   166   -0.000000    0.000000   -0.000000    0.000000    0.000000
  |   167    0.000000    0.000000   -0.000000   -0.000000
  |   168    0.000000    0.000000    0.000000    0.000000
  |   169    0.000000    0.000000    0.000000    0.000000
  |   170    0.000000    0.000000   -0.000000   -0.000000
  |   171    0.000000    0.000000    0.000000   -0.000000   -0.000000
  |   172   -0.000000   -0.000000    0.000000    0.000000   -0.000000
  |   173   -0.000000    0.000000   -0.000000    0.000000
  |   174    0.000000   -0.000000    0.000000    0.000000
  |   175   -0.000000   -0.000000    0.000000   -0.000000
  |   176    0.000000   -0.000000    0.000000    0.000000
  |   177    0.000000    0.000000    0.000000    0.000000    0.000000
  |   178    0.000000   -0.000000    0.000000   -0.000000    0.000000
  |   179    0.000000    0.000000    0.000000    0.000000
  |   180    0.000000    0.000000   -0.000000   -0.000000
  |   181   -0.000000    0.000000   -0.000000    0.000000
  |   182   -0.000000   -0.000000    0.000000    0.000000
  |   183   -0.000000    0.000000   -0.000000   -0.000000   -0.000000
  |   184   -0.000000   -0.000000   -0.000000    0.000000    0.000000
  |   185    0.000000    0.000000    0.000000    0.000000
  |   186    0.000000    0.000000    0.000000   -0.000000
  |   187    0.000000    0.000000    0.000000   -0.000000
  |   188    0.000000    0.000000   -0.000000   -0.000000
  |   189    0.000000    0.000000   -0.000000    0.000000    0.000000
  |   190   -0.000000   -0.000000   -0.000000    0.000000    0.000000
  |   191   -0.000000   -0.000000   -0.000000   -0.000000
  |   192    0.000000    0.000000    0.000000   -0.000000
  |   193    0.000000    0.000000   -0.000000    0.000000
  |   194    0.000000    0.000000   -0.000000    0.000000
  |   195   -0.000000    0.000000   -0.000000   -0.000000    0.000000
  |   196    0.000000    0.000000    0.000000    0.000000    0.000000
  |   197    0.000000    0.000000   -0.000000   -0.000000
  |   198   -0.000000   -0.000000    0.000000   -0.000000
  |   199    0.000000   -0.000000    0.000000    0.000000
  |   200    0.000000    0.000000    0.000000   -0.000000
  |   201    0.000000    0.000000    0.000000    0.000000    0.000000
  |   202    0.000000    0.000000   -0.000000    0.000000    0.000000
  |   203    0.000000   -0.000000    0.000000    0.000000
  |   204   -0.000000   -0.000000   -0.000000   -0.000000
  |   205   -0.000000    0.000000   -0.000000    0.000000
  |   206   -0.000000    0.000000   -0.000000   -0.000000
  |   207    0.000000    0.000000    0.000000    0.000000   -0.000000
  |   208    0.000000    0.000000    0.000000    0.000000    0.000000
  |   209   -0.000000   -0.000000    0.000000    0.000000
  |   210    0.000000    0.000000    0.000000    0.000000
  |   211   -0.000000    0.000000   -0.000000   -0.000000
  |   212   -0.000000   -0.000000    0.000000    0.000000
  |   213    0.000000    0.000000    0.000000    0.000000   -0.000000
  |   214   -0.000000   -0.000000    0.000000   -0.000000    0.000000
  |   215   -0.000000    0.000000   -0.000000   -0.000000
  |   216    0.000000    0.000000    0.000000    0.000000
  |   217   -0.000000    0.000000   -0.000000   -0.000000
  |   218    0.000000   -0.000000    0.000000   -0.000000
  |   219    0.000000    0.000000    0.000000    0.000000    0.000000
  |   220    0.000000    0.000000   -0.000000    0.000000    0.000000
  |   221   -0.000000   -0.000000   -0.000000   -0.000000
  |   222    0.000000    0.000000    0.000000    0.000000
  |   223    0.000000    0.000000    0.000000    0.000000
  |   224    0.000000    0.000000   -0.000000    0.000000
  |   225    0.000000    0.000000   -0.000000   -0.000000    0.000000
  |   226   -0.000000   -0.000000    0.000000    0.000000    0.000000
  |   227   -0.000000   -0.000000   -0.000000    0.000000
  |   228   -0.000000    0.000000   -0.000000    0.000000
  |   229   -0.000000    0.000000   -0.000000   -0.000000
  |   230    0.000000    0.000000    0.000000   -0.000000
  |   231   -0.000000   -0.000000    0.000000   -0.000000   -0.000000
  |   232    0.000000    0.000000   -0.000000    0.000000   -0.000000
  |   233   -0.000000   -0.000000   -0.000000   -0.000000
  |   234   -0.000000    0.000000   -0.000000   -0.000000
  |   235   -0.000000   -0.000000   -0.000000    0.000000
  |   236    0.000000    0.000000   -0.000000   -0.000000
  |   237    0.000000    0.000000    0.000000    0.000000    0.000000
  |   238    0.000000    0.000000   -0.000000   -0.000000   -0.000000
  |   239    0.000000   -0.000000    0.000000    0.000000
  |   240   -0.000000   -0.000000   -0.000000    0.000000
  |   241   -0.000000    0.000000   -0.000000    0.000000
  |   242   -0.000000   -0.000000    0.000000    0.000000
  |   243    0.000000    0.000000    0.000000    0.000000    0.000000
  |   244    0.000000   -0.000000    0.000000    0.000000    0.000000
  |   245   -0.000000   -0.000000   -0.000000   -0.000000
  |   246   -0.000000   -0.000000   -0.000000    0.000000
  |   247   -0.000000   -0.000000   -0.000000    0.000000
  |   248    0.000000    0.000000    0.000000    0.000000
  |   249    0.000000   -0.000000    0.000000    0.000000    0.000000
  |   250    0.000000    0.000000    0.000000    0.000000    0.000000
  |   251   -0.000000   -0.000000    0.000000    0.000000
  |   252    0.000000   -0.000000    0.000000   -0.000000
  |   253   -0.000000   -0.000000   -0.000000    0.000000
  |   254    0.000000    0.000000    0.000000   -0.000000
  |   255   -0.000000   -0.000000    0.000000   -0.000000   -0.000000
  |   256    0.000000    0.000000   -0.000000    0.000000   -0.000000
  |   257   -0.000000   -0.000000   -0.000000   -0.000000
  |   258   -0.000000    0.000000   -0.000000    0.000000
  |   259   -0.000000   -0.000000    0.000000    0.000000
  |   260    0.000000   -0.000000    0.000000    0.000000
  |   261   -0.000000    0.000000   -0.000000   -0.000000    0.000000
  |   262    0.000000   -0.000000    0.000000    0.000000    0.000000
  |   263   -0.000000   -0.000000   -0.000000    0.000000
  |   264    0.000000    0.000000    0.000000    0.000000
  |   265   -0.000000    0.000000   -0.000000   -0.000000
  |   266    0.000000    0.000000    0.000000   -0.000000
  |   267    0.000000   -0.000000    0.000000    0.000000    0.000000
  |   268    0.000000    0.000000    0.000000    0.000000    0.000000
  |   269    0.000000   -0.000000    0.000000   -0.000000
  |   270   -0.000000   -0.000000   -0.000000    0.000000
  |   271    0.000000   -0.000000    0.000000    0.000000
  |   272    0.000000   -0.000000    0.000000    0.000000
  |   273    0.000000    0.000000    0.000000    0.000000   -0.000000
  |   274    0.000000    0.000000   -0.000000   -0.000000    0.000000
  |   275   -0.000000    0.000000   -0.000000    0.000000
  |   276    0.000000    0.000000    0.000000    0.000000
  |   277    0.000000    0.000000    0.000000    0.000000
  |   278   -0.000000   -0.000000   -0.000000    0.000000
  |   279    0.000000    0.000000    0.000000   -0.000000   -0.000000
  |   280    0.000000    0.000000    0.000000    0.000000    0.000000
  |   281   -0.000000   -0.000000   -0.000000   -0.000000
  |   282    0.000000    0.000000    0.000000    0.000000
  |   283   -0.000000   -0.000000   -0.000000    0.000000
  |   284    0.000000   -0.000000    0.000000   -0.000000
  |   285   -0.000000    0.000000   -0.000000   -0.000000    0.000000
  |   286   -0.000000    0.000000   -0.000000   -0.000000   -0.000000
  |   287    0.000000    0.000000   -0.000000   -0.000000
  |   288   -0.000000   -0.000000    0.000000    0.000000
  |   289   -0.000000    0.000000   -0.000000    0.000000
  |   290    0.000000    0.000000   -0.000000   -0.000000
  |   291    0.000000   -0.000000    0.000000    0.000000   -0.000000
  |   292   -0.000000   -0.000000   -0.000000    0.000000    0.000000
  |   293   -0.000000   -0.000000   -0.000000    0.000000
  |   294    0.000000   -0.000000    0.000000   -0.000000
  |   295   -0.000000    0.000000   -0.000000   -0.000000
  |   296   -0.000000   -0.000000    0.000000   -0.000000
  |   297    0.000000    0.000000   -0.000000    0.000000    0.000000
  |   298   -0.000000   -0.000000    0.000000   -0.000000   -0.000000
  |   299    0.000000   -0.000000    0.000000    0.000000
  |   300    0.000000    0.000000    0.000000   -0.000000
  |   301   -0.000000   -0.000000   -0.000000   -0.000000
  |   302    0.000000    0.000000    0.000000   -0.000000
  |   303   -0.000000    0.000000    0.000000   -0.000000    0.000000
  |   304    0.000000    0.000000    0.000000    0.000000   -0.000000
  |   305    0.000000    0.000000    0.000000   -0.000000
  |   306    0.000000   -0.000000    0.000000    0.000000
  |   307    0.000000    0.000000    0.000000    0.000000
  |   308   -0.000000    0.000000   -0.000000   -0.000000
  |   309   -0.000000   -0.000000   -0.000000   -0.000000   -0.000000
  |   310    0.000000   -0.000000    0.000000    0.000000    0.000000
  |   311   -0.000000   -0.000000   -0.000000    0.000000
  |   312   -0.000000   -0.000000   -0.000000    0.000000
  |   313   -0.000000    0.000000   -0.000000    0.000000
  |   314   -0.000000    0.000000   -0.000000   -0.000000
  |   315   -0.000000   -0.000000   -0.000000   -0.000000   -0.000000
  |   316    0.000000    0.000000   -0.000000    0.000000    0.000000
  |   317    0.000000   -0.000000    0.000000    0.000000
  |   318   -0.000000   -0.000000    0.000000   -0.000000
  |   319    0.000000   -0.000000    0.000000   -0.000000
  |   320   -0.000000   -0.000000   -0.000000   -0.000000
  |   321   -0.000000    0.000000    0.000000   -0.000000   -0.000000
  |   322    0.000000    0.000000   -0.000000    0.000000    0.000000
  |   323   -0.000000    0.000000   -0.000000    0.000000
  |   324    0.000000   -0.000000    0.000000   -0.000000
  |
  | Total    0.000000
 
  Writing Mulliken decomposition to disk ...

  Mulliken analysis                                       :  max(cpu_time)    wall_clock(cpu1)
  | Time for Mulliken analysis                            :        338.458             338.515
  | Total time for Mulliken analysis                      :        338.458             338.515
------------------------------------------------------------
  Post-scf processing of Kohn-Sham eigenvalues on a denser k-point grid.
  | Using dos_kgrid_factors to calculate post-scf total density of states.
  | Electron chemical potential:    -7.217463102692 eV.
  Integrating Hamiltonian matrix: batch-based integration.
  Time summed over all CPUs for integration: real work      740.120 s, elapsed     1142.732 s => Consider using load balancing!
  Computing correction matrix for scaled ZORA eigenvalues.
  Processing batch of k-points:     1     1     1
  Evaluating scaled zora correction for each Kohn-Sham eigenstate.
  Processing batch of k-points:     1     1     2
  Evaluating scaled zora correction for each Kohn-Sham eigenstate.
  Processing batch of k-points:     1     1     3
  Evaluating scaled zora correction for each Kohn-Sham eigenstate.
  Processing batch of k-points:     1     2     1
  Evaluating scaled zora correction for each Kohn-Sham eigenstate.
  Processing batch of k-points:     1     2     2
  Evaluating scaled zora correction for each Kohn-Sham eigenstate.
  Processing batch of k-points:     1     2     3
  Evaluating scaled zora correction for each Kohn-Sham eigenstate.
  Processing batch of k-points:     1     3     1
  Evaluating scaled zora correction for each Kohn-Sham eigenstate.
  Processing batch of k-points:     1     3     2
  Evaluating scaled zora correction for each Kohn-Sham eigenstate.
  Processing batch of k-points:     1     3     3
  Evaluating scaled zora correction for each Kohn-Sham eigenstate.
  Processing batch of k-points:     2     1     1
  Evaluating scaled zora correction for each Kohn-Sham eigenstate.
  Processing batch of k-points:     2     1     2
  Evaluating scaled zora correction for each Kohn-Sham eigenstate.
  Processing batch of k-points:     2     1     3
  Evaluating scaled zora correction for each Kohn-Sham eigenstate.
  Processing batch of k-points:     2     2     1
  Evaluating scaled zora correction for each Kohn-Sham eigenstate.
  Processing batch of k-points:     2     2     2
  Evaluating scaled zora correction for each Kohn-Sham eigenstate.
  Processing batch of k-points:     2     2     3
  Evaluating scaled zora correction for each Kohn-Sham eigenstate.
  Processing batch of k-points:     2     3     1
  Evaluating scaled zora correction for each Kohn-Sham eigenstate.
  Processing batch of k-points:     2     3     2
  Evaluating scaled zora correction for each Kohn-Sham eigenstate.
  Processing batch of k-points:     2     3     3
  Evaluating scaled zora correction for each Kohn-Sham eigenstate.
  Processing batch of k-points:     3     1     1
  Evaluating scaled zora correction for each Kohn-Sham eigenstate.
