------------------------------------------------------------
          Invoking FHI-aims ...

          When using FHI-aims, please cite the following reference:

            Volker Blum, Ralf Gehrke, Felix Hanke, Paula Havu,
            Ville Havu, Xinguo Ren, Karsten Reuter, and Matthias Scheffler,
            'Ab Initio Molecular Simulations with Numeric Atom-Centered Orbitals',
            Computer Physics Communications 180, 2175-2196 (2009)

          In addition, many other developments in FHI-aims are likely important for
          your particular application. If so, please cite them. A partial list of references
          is written at the end of this file. Thank you for giving credit to the authors
          of these developments.

          For general information about FHI-aims please find us at

            https://fhi-aims.org

          Online tutorials can be found at

            https://fhi-aims-club.gitlab.io/tutorials/tutorials-overview/

          For any questions about FHI-aims, please visit our slack channel at

            https://fhi-aims.slack.com

          and our main development and support site at

            https://aims-git.rz-berlin.mpg.de .

          The latter site, in particular, has a wiki to collect information, as well
          as an issue tracker to log discussions, suggest improvements, and report issues
          or bugs. https://aims-git.rz-berlin.mpg.de is also the main development site
          of the project and all new and updated code versions can be obtained there.
          Please send an email to aims-coordinators@fhi-berlin.mpg.de and we will add
          you to these sites. They are for you and everyone is welcome there.

------------------------------------------------------------



  Date     :  20250311, Time     :  155013.824
  Time zero on CPU 1             :   0.379738000000000E+00  s.
  Internal wall clock time zero  :           510940213.824  s.

  FHI-aims created a unique identifier for this run for later identification
  aims_uuid : 625153DB-A41C-4369-AD56-37346928560E

  Build configuration of the current instance of FHI-aims
  -------------------------------------------------------
  FHI-aims version      : 240605
  Commit number         : b001b2e18
  CMake host system     : Linux-6.5.0-41-generic
  CMake version         : 3.22.1
  Fortran compiler      : /opt/intel/oneapi/mpi/2021.12/bin/mpiifort (IntelLLVM) version 2024.1.0
  Fortran compiler flags: -fc=ifx -O3 -ip -fp-model precise
  C compiler            : /opt/intel/oneapi/mpi/2021.12/bin/mpiicc (IntelLLVM) version 2024.1.0
  C compiler flags      : -cc=icx -O3 -ip -fp-model precise -std=gnu99
  C++ compiler          : /opt/intel/oneapi/mpi/2021.12/bin/mpiicpc (IntelLLVM) version 2024.1.0
  C++ compiler flags    : -cxx=icpx -O3 -ip -fp-model precise -std=c++11
  HIP compiler          :
  HIP compiler flags    :
  HIP GPU arch          :
  Using MPI
  Using ScaLAPACK
  Using LibXC
  Using i-PI
  Using RLSY
  Linking against: /opt/intel/oneapi/mkl/2024.1/lib/intel64/libmkl_intel_lp64.so
                   /opt/intel/oneapi/mkl/2024.1/lib/intel64/libmkl_sequential.so
                   /opt/intel/oneapi/mkl/2024.1/lib/intel64/libmkl_core.so
                   /opt/intel/oneapi/mkl/2024.1/lib/intel64/libmkl_blacs_intelmpi_lp64.so
                   /opt/intel/oneapi/mkl/2024.1/lib/intel64/libmkl_scalapack_lp64.so
                   /opt/intel/oneapi/mkl/2024.1/lib/intel64/libmkl_core.so

  Using       32 parallel tasks.
  Task        0 on host RSL-arvutus reporting.
  Task        1 on host RSL-arvutus reporting.
  Task        2 on host RSL-arvutus reporting.
  Task        3 on host RSL-arvutus reporting.
  Task        4 on host RSL-arvutus reporting.
  Task        5 on host RSL-arvutus reporting.
  Task        6 on host RSL-arvutus reporting.
  Task        7 on host RSL-arvutus reporting.
  Task        8 on host RSL-arvutus reporting.
  Task        9 on host RSL-arvutus reporting.
  Task       10 on host RSL-arvutus reporting.
  Task       11 on host RSL-arvutus reporting.
  Task       12 on host RSL-arvutus reporting.
  Task       13 on host RSL-arvutus reporting.
  Task       14 on host RSL-arvutus reporting.
  Task       15 on host RSL-arvutus reporting.
  Task       16 on host RSL-arvutus reporting.
  Task       17 on host RSL-arvutus reporting.
  Task       18 on host RSL-arvutus reporting.
  Task       19 on host RSL-arvutus reporting.
  Task       20 on host RSL-arvutus reporting.
  Task       21 on host RSL-arvutus reporting.
  Task       22 on host RSL-arvutus reporting.
  Task       23 on host RSL-arvutus reporting.
  Task       24 on host RSL-arvutus reporting.
  Task       25 on host RSL-arvutus reporting.
  Task       26 on host RSL-arvutus reporting.
  Task       27 on host RSL-arvutus reporting.
  Task       28 on host RSL-arvutus reporting.
  Task       29 on host RSL-arvutus reporting.
  Task       30 on host RSL-arvutus reporting.
  Task       31 on host RSL-arvutus reporting.

  Memory overcommitment is allowed on your operating system.

  Obtaining array dimensions for all initial allocations:
  
  -----------------------------------------------------------------------
  Parsing control.in (first pass over file, find array dimensions only).
  The contents of control.in will be repeated verbatim below
  unless switched off by setting 'verbatim_writeout .false.' .
  in the first line of control.in .
  -----------------------------------------------------------------------
  
  xc                 pbe
  relativistic       zora scalar 1.0e-12
  spin               none
  ################################################################################
  #
  #  FHI-aims code project
  #  Volker Blum, Fritz Haber Institute Berlin, 2009
  #
  #  Suggested "tight" defaults for O atom (to be pasted into control.in file)
  #
  ################################################################################
    species        O
  #     global species definitions
      nucleus             8
      mass                15.9994
  #
      l_hartree           6
  #
      cut_pot             4.0  2.0  1.0
      basis_dep_cutoff    1e-4
  #
      radial_base         36 7.0
      radial_multiplier   2
       angular_grids specified
        division   0.1817   50
        division   0.3417  110
        division   0.4949  194
        division   0.6251  302
        division   0.8014  434
  #      division   0.8507  590
  #      division   0.8762  770
  #      division   0.9023  974
  #      division   1.2339 1202
  #      outer_grid 974
        outer_grid  434
  ################################################################################
  #
  #  Definition of "minimal" basis
  #
  ################################################################################
  #     valence basis states
      valence      2  s   2.
      valence      2  p   4.
  #     ion occupancy
      ion_occ      2  s   1.
      ion_occ      2  p   3.
  ################################################################################
  #
  #  Suggested additional basis functions. For production calculations,
  #  uncomment them one after another (the most important basis functions are
  #  listed first).
  #
  #  Constructed for dimers: 1.0 A, 1.208 A, 1.5 A, 2.0 A, 3.0 A
  #
  ################################################################################
  #  "First tier" - improvements: -699.05 meV to -159.38 meV
       hydro 2 p 1.8
       hydro 3 d 7.6
       hydro 3 s 6.4
  #  "Second tier" - improvements: -49.91 meV to -5.39 meV
       hydro 4 f 11.6
       hydro 3 p 6.2
       hydro 3 d 5.6
       hydro 5 g 17.6
       hydro 1 s 0.75
  #  "Third tier" - improvements: -2.83 meV to -0.50 meV
  #     ionic 2 p auto
  #     hydro 4 f 10.8
  #     hydro 4 d 4.7
  #     hydro 2 s 6.8
  #  "Fourth tier" - improvements: -0.40 meV to -0.12 meV
  #     hydro 3 p 5
  #     hydro 3 s 3.3
  #     hydro 5 g 15.6
  #     hydro 4 f 17.6
  #     hydro 4 d 14
  # Further basis functions - -0.08 meV and below
  #     hydro 3 s 2.1
  #     hydro 4 d 11.6
  #     hydro 3 p 16
  #     hydro 2 s 17.2
  ################################################################################
  #
  # For methods that use the localized form of the "resolution of identity" for
  # the two-electron Coulomb operator (RI_method LVL), particularly Hartree-Fock and
  # hybrid density functional calculations, the highest accuracy can be obtained by
  # uncommenting the line beginning with "for_aux"  below, thus adding an extra g radial
  # function to the construction of the product basis set for the expansion.
  # See Ref. New J. Phys. 17, 093020 (2015) for more information, particularly Figs. 1 and 6.
  #
  ################################################################################
  #
  # for_aux hydro 5 g 6.0
  ################################################################################
  #
  #  FHI-aims code project
  #  Volker Blum, Fritz Haber Institute Berlin, 2009
  #
  #  Suggested "tight" defaults for C atom (to be pasted into control.in file)
  #
  ################################################################################
    species        C
  #     global species definitions
      nucleus             6
      mass                12.0107
  #
      l_hartree           6
  #
      cut_pot             4.0  2.0  1.0
      basis_dep_cutoff    1e-4
  #
      radial_base         34 7.0
      radial_multiplier   2
      angular_grids specified
        division   0.2187   50
        division   0.4416  110
        division   0.6335  194
        division   0.7727  302
        division   0.8772  434
  #      division   0.9334  590
  #      division   0.9924  770
  #      division   1.0230  974
  #      division   1.5020 1202
  #     outer_grid  974
        outer_grid  434
  ################################################################################
  #
  #  Definition of "minimal" basis
  #
  ################################################################################
  #     valence basis states
      valence      2  s   2.
      valence      2  p   2.
  #     ion occupancy
      ion_occ      2  s   1.
      ion_occ      2  p   1.
  ################################################################################
  #
  #  Suggested additional basis functions. For production calculations,
  #  uncomment them one after another (the most important basis functions are
  #  listed first).
  #
  #  Constructed for dimers: 1.0 A, 1.25 A, 1.5 A, 2.0 A, 3.0 A
  #
  ################################################################################
  #  "First tier" - improvements: -1214.57 meV to -155.61 meV
       hydro 2 p 1.7
       hydro 3 d 6
       hydro 2 s 4.9
  #  "Second tier" - improvements: -67.75 meV to -5.23 meV
       hydro 4 f 9.8
       hydro 3 p 5.2
       hydro 3 s 4.3
       hydro 5 g 14.4
       hydro 3 d 6.2
  #  "Third tier" - improvements: -2.43 meV to -0.60 meV
  #     hydro 2 p 5.6
  #     hydro 2 s 1.4
  #     hydro 3 d 4.9
  #     hydro 4 f 11.2
  #  "Fourth tier" - improvements: -0.39 meV to -0.18 meV
  #     hydro 2 p 2.1
  #     hydro 5 g 16.4
  #     hydro 4 d 13.2
  #     hydro 3 s 13.6
  #     hydro 4 f 17.6
  #  Further basis functions - improvements: -0.08 meV and below
  #     hydro 3 s 2
  #     hydro 3 p 6
  #     hydro 4 d 20
  ################################################################################
  #
  # For methods that use the localized form of the "resolution of identity" for
  # the two-electron Coulomb operator (RI_method LVL), particularly Hartree-Fock and
  # hybrid density functional calculations, the highest accuracy can be obtained by
  # uncommenting the line beginning with "for_aux"  below, thus adding an extra g radial
  # function to the construction of the product basis set for the expansion.
  # See Ref. New J. Phys. 17, 093020 (2015) for more information, particularly Figs. 1 and 6.
  #
  ################################################################################
  #
  # for_aux hydro 5 g 6.0
  ################################################################################
  #
  #  FHI-aims code project
  #  Volker Blum, Fritz Haber Institute Berlin, 2009
  #
  #  Suggested "tight" defaults for H atom (to be pasted into control.in file)
  #
  ################################################################################
    species        H
  #     global species definitions
      nucleus             1
      mass                1.00794
  #
      l_hartree           6
  #
      cut_pot             4.0  2.0  1.0
      basis_dep_cutoff    1e-4
  #
      radial_base         24 7.0
      radial_multiplier   2
      angular_grids       specified
        division   0.1930   50
        division   0.3175  110
        division   0.4293  194
        division   0.5066  302
        division   0.5626  434
  #      division   0.5922  590
  #      division   0.6227  974
  #      division   0.6868 1202
  #      outer_grid  770
        outer_grid  434
  ################################################################################
  #
  #  Definition of "minimal" basis
  #
  ################################################################################
  #     valence basis states
      valence      1  s   1.
  #     ion occupancy
      ion_occ      1  s   0.5
  ################################################################################
  #
  #  Suggested additional basis functions. For production calculations,
  #  uncomment them one after another (the most important basis functions are
  #  listed first).
  #
  #  Basis constructed for dimers: 0.5 A, 0.7 A, 1.0 A, 1.5 A, 2.5 A
  #
  ################################################################################
  #  "First tier" - improvements: -1014.90 meV to -62.69 meV
       hydro 2 s 2.1
       hydro 2 p 3.5
  #  "Second tier" - improvements: -12.89 meV to -1.83 meV
       hydro 1 s 0.85
       hydro 2 p 3.7
       hydro 2 s 1.2
       hydro 3 d 7
  #  "Third tier" - improvements: -0.25 meV to -0.12 meV
  #     hydro 4 f 11.2
  #     hydro 3 p 4.8
  #     hydro 4 d 9
  #     hydro 3 s 3.2
  ################################################################################
  #
  # For methods that use the localized form of the "resolution of identity" for
  # the two-electron Coulomb operator (RI_method LVL), particularly Hartree-Fock and
  # hybrid density functional calculations, the highest accuracy can be obtained by
  # uncommenting the line beginning with "for_aux"  below, thus adding an extra g radial
  # function to the construction of the product basis set for the expansion.
  # See Ref. New J. Phys. 17, 093020 (2015) for more information, particularly Figs. 1 and 6.
  #
  ################################################################################
  #
  # for_aux hydro 5 g 6.0
  
  -----------------------------------------------------------------------
  Completed first pass over input file control.in .
  -----------------------------------------------------------------------
  
  
  -----------------------------------------------------------------------
  Parsing geometry.in (first pass over file, find array dimensions only).
  The contents of geometry.in will be repeated verbatim below
  unless switched off by setting 'verbatim_writeout .false.' .
  in the first line of geometry.in .
  -----------------------------------------------------------------------
  
  #
  # This is the geometry file that corresponds to the current relaxation step.
  # If you do not want this file to be written, set the "write_restart_geometry" flag to .false.
  #  aims_uuid : 41474E25-6416-445A-AD69-EBB019BE4B14
  #
  atom      -1.18858981      0.17204448      0.00004233 O
  atom       1.08598725      0.22808010     -0.00001524 O
  atom       0.04623286     -0.38312059      0.00005087 C
  atom      -0.04942104     -1.48488773      0.00016312 H
  atom      -1.05960926      1.14248374     -0.00004108 H
  #
  # What follows is the current estimated Hessian matrix constructed by the BFGS algorithm.
  # This is NOT the true Hessian matrix of the system.
  # If you do not want this information here, switch it off using the "hessian_to_restart_geometry" keyword.
  #
  trust_radius             0.0195026365
  hessian_file
  
  -----------------------------------------------------------------------
  Completed first pass over input file geometry.in .
  -----------------------------------------------------------------------
  

  Basic array size parameters:
  | Number of species                 :        3
  | Number of atoms                   :        5
  | Max. basis fn. angular momentum   :        4
  | Max. atomic/ionic basis occupied n:        2
  | Max. number of basis fn. types    :        2
  | Max. radial fns per species/type  :        8
  | Max. logarithmic grid size        :     1301
  | Max. radial integration grid size :       73
  | Max. angular integration grid size:      434
  | Max. angular grid division number :        8
  | Radial grid for Hartree potential :     1301
  | Number of spin channels           :        1

------------------------------------------------------------
          Reading file control.in.
------------------------------------------------------------
  XC: Using PBE gradient-corrected functionals.
  Scalar relativistic treatment of kinetic energy: ZORA.
  Threshold value for ZORA:   0.100000E-11
  Spin treatment: No spin polarisation.
 
  Reading configuration options for species O                   .
  | Found nuclear charge :   8.0000
  | Found atomic mass :    15.9994000000000      amu
  | Found l_max for Hartree potential  :   6
  | Found cutoff potl. onset [A], width [A], scale factor :    4.00000    2.00000    1.00000
  | Threshold for basis-dependent cutoff potential is   0.100000E-03
  | Found data for basic radial integration grid :    36 points, outermost radius =    7.000 A
  | Found multiplier for basic radial grid :   2
  | Found angular grid specification: user-specified.
  | Specified grid contains     6 separate shells.
  | Check grid settings after all constraints further below.
  | Found free-atom valence shell :  2 s   2.000
  | Found free-atom valence shell :  2 p   4.000
  | No ionic wave fns used. Skipping ion_occ.
  | No ionic wave fns used. Skipping ion_occ.
  | Found hydrogenic basis function :  2 p   1.800
  | Found hydrogenic basis function :  3 d   7.600
  | Found hydrogenic basis function :  3 s   6.400
  | Found hydrogenic basis function :  4 f  11.600
  | Found hydrogenic basis function :  3 p   6.200
  | Found hydrogenic basis function :  3 d   5.600
  | Found hydrogenic basis function :  5 g  17.600
  | Found hydrogenic basis function :  1 s   0.750
 | Encountered keyword species, ending the description of species O                   .
  Species O                   : Missing cutoff potential type.
  Defaulting to exp(1/x)/(1-x)^2 type cutoff potential.
  Species O : No 'logarithmic' tag. Using default grid for free atom:
  | Default logarithmic grid data [bohr] : 0.1000E-03 0.1000E+03 0.1012E+01
  Species O : On-site basis accuracy parameter (for Gram-Schmidt orthonormalisation) not specified.
  Using default value basis_acc =  0.1000000E-03.
  Species O                   : Using default innermost maximum threshold i_radial=  2 for radial functions.
  Species O                   : Default cutoff onset for free atom density etc. : 0.40000000E+01 AA.
  Species O                   : Basic radial grid will be enhanced according to radial_multiplier =   2, to contain    73 grid points.
 
  Reading configuration options for species C                   .
  | Found nuclear charge :   6.0000
  | Found atomic mass :    12.0107000000000      amu
  | Found l_max for Hartree potential  :   6
  | Found cutoff potl. onset [A], width [A], scale factor :    4.00000    2.00000    1.00000
  | Threshold for basis-dependent cutoff potential is   0.100000E-03
  | Found data for basic radial integration grid :    34 points, outermost radius =    7.000 A
  | Found multiplier for basic radial grid :   2
  | Found angular grid specification: user-specified.
  | Specified grid contains     6 separate shells.
  | Check grid settings after all constraints further below.
  | Found free-atom valence shell :  2 s   2.000
  | Found free-atom valence shell :  2 p   2.000
  | No ionic wave fns used. Skipping ion_occ.
  | No ionic wave fns used. Skipping ion_occ.
  | Found hydrogenic basis function :  2 p   1.700
  | Found hydrogenic basis function :  3 d   6.000
  | Found hydrogenic basis function :  2 s   4.900
  | Found hydrogenic basis function :  4 f   9.800
  | Found hydrogenic basis function :  3 p   5.200
  | Found hydrogenic basis function :  3 s   4.300
  | Found hydrogenic basis function :  5 g  14.400
  | Found hydrogenic basis function :  3 d   6.200
 | Encountered keyword species, ending the description of species C                   .
  Species C                   : Missing cutoff potential type.
  Defaulting to exp(1/x)/(1-x)^2 type cutoff potential.
  Species C : No 'logarithmic' tag. Using default grid for free atom:
  | Default logarithmic grid data [bohr] : 0.1000E-03 0.1000E+03 0.1012E+01
  Species C : On-site basis accuracy parameter (for Gram-Schmidt orthonormalisation) not specified.
  Using default value basis_acc =  0.1000000E-03.
  Species C                   : Using default innermost maximum threshold i_radial=  2 for radial functions.
  Species C                   : Default cutoff onset for free atom density etc. : 0.40000000E+01 AA.
  Species C                   : Basic radial grid will be enhanced according to radial_multiplier =   2, to contain    69 grid points.
 
  Reading configuration options for species H                   .
  | Found nuclear charge :   1.0000
  | Found atomic mass :    1.00794000000000      amu
  | Found l_max for Hartree potential  :   6
  | Found cutoff potl. onset [A], width [A], scale factor :    4.00000    2.00000    1.00000
  | Threshold for basis-dependent cutoff potential is   0.100000E-03
  | Found data for basic radial integration grid :    24 points, outermost radius =    7.000 A
  | Found multiplier for basic radial grid :   2
  | Found angular grid specification: user-specified.
  | Specified grid contains     6 separate shells.
  | Check grid settings after all constraints further below.
  | Found free-atom valence shell :  1 s   1.000
  | No ionic wave fns used. Skipping ion_occ.
  | Found hydrogenic basis function :  2 s   2.100
  | Found hydrogenic basis function :  2 p   3.500
  | Found hydrogenic basis function :  1 s   0.850
  | Found hydrogenic basis function :  2 p   3.700
  | Found hydrogenic basis function :  2 s   1.200
  | Found hydrogenic basis function :  3 d   7.000
  Species H                   : Missing cutoff potential type.
  Defaulting to exp(1/x)/(1-x)^2 type cutoff potential.
  Species H : No 'logarithmic' tag. Using default grid for free atom:
  | Default logarithmic grid data [bohr] : 0.1000E-03 0.1000E+03 0.1012E+01
  Species H : On-site basis accuracy parameter (for Gram-Schmidt orthonormalisation) not specified.
  Using default value basis_acc =  0.1000000E-03.
  Species H                   : Using default innermost maximum threshold i_radial=  2 for radial functions.
  Species H                   : Default cutoff onset for free atom density etc. : 0.40000000E+01 AA.
  Species H                   : Basic radial grid will be enhanced according to radial_multiplier =   2, to contain    49 grid points.
 
  Finished reading input file 'control.in'.
 
------------------------------------------------------------


------------------------------------------------------------
          Reading geometry description geometry.in.
------------------------------------------------------------
  Found keyword 'hessian_file', indicating that this is the continuation of a structure optimization.
  However, the control.in file does not request the geometry to be optimized.
  Ignoring the request for a file 'hessian.aims' to be present.
  | The smallest distance between any two atoms is         0.97897311 AA.
  | The first atom of this pair is atom number                      1 .
  | The second atom of this pair is atom number                     5 .
  Input structure read successfully.
  The structure contains        5 atoms,  and a total of         24.000 electrons.

  Input geometry:
  | No unit cell requested.
  | Atomic structure:
  |       Atom                x [A]            y [A]            z [A]
  |    1: Species O            -1.18858981        0.17204448        0.00004233
  |    2: Species O             1.08598725        0.22808010       -0.00001524
  |    3: Species C             0.04623286       -0.38312059        0.00005087
  |    4: Species H            -0.04942104       -1.48488773        0.00016312
  |    5: Species H            -1.05960926        1.14248374       -0.00004108

  Slab Identifier: This is not a periodic structure.
 
  Finished reading input file 'geometry.in'.
 

 
  Consistency checks for stacksize environment parameter are next.
 
  | Maximum stacksize for task 0: unlimited
  | Maximum stacksize for task 1: unlimited
  | Maximum stacksize for task 2: unlimited
  | Maximum stacksize for task 3: unlimited
  | Maximum stacksize for task 4: unlimited
  | Maximum stacksize for task 5: unlimited
  | Maximum stacksize for task 6: unlimited
  | Maximum stacksize for task 7: unlimited
  | Maximum stacksize for task 8: unlimited
  | Maximum stacksize for task 9: unlimited
  | Maximum stacksize for task 10: unlimited
  | Maximum stacksize for task 11: unlimited
  | Maximum stacksize for task 12: unlimited
  | Maximum stacksize for task 13: unlimited
  | Maximum stacksize for task 14: unlimited
  | Maximum stacksize for task 15: unlimited
  | Maximum stacksize for task 16: unlimited
  | Maximum stacksize for task 17: unlimited
  | Maximum stacksize for task 18: unlimited
  | Maximum stacksize for task 19: unlimited
  | Maximum stacksize for task 20: unlimited
  | Maximum stacksize for task 21: unlimited
  | Maximum stacksize for task 22: unlimited
  | Maximum stacksize for task 23: unlimited
  | Maximum stacksize for task 24: unlimited
  | Maximum stacksize for task 25: unlimited
  | Maximum stacksize for task 26: unlimited
  | Maximum stacksize for task 27: unlimited
  | Maximum stacksize for task 28: unlimited
  | Maximum stacksize for task 29: unlimited
  | Maximum stacksize for task 30: unlimited
  | Maximum stacksize for task 31: unlimited
  | Current stacksize for task 0: unlimited
  | Current stacksize for task 1: unlimited
  | Current stacksize for task 2: unlimited
  | Current stacksize for task 3: unlimited
  | Current stacksize for task 4: unlimited
  | Current stacksize for task 5: unlimited
  | Current stacksize for task 6: unlimited
  | Current stacksize for task 7: unlimited
  | Current stacksize for task 8: unlimited
  | Current stacksize for task 9: unlimited
  | Current stacksize for task 10: unlimited
  | Current stacksize for task 11: unlimited
  | Current stacksize for task 12: unlimited
  | Current stacksize for task 13: unlimited
  | Current stacksize for task 14: unlimited
  | Current stacksize for task 15: unlimited
  | Current stacksize for task 16: unlimited
  | Current stacksize for task 17: unlimited
  | Current stacksize for task 18: unlimited
  | Current stacksize for task 19: unlimited
  | Current stacksize for task 20: unlimited
  | Current stacksize for task 21: unlimited
  | Current stacksize for task 22: unlimited
  | Current stacksize for task 23: unlimited
  | Current stacksize for task 24: unlimited
  | Current stacksize for task 25: unlimited
  | Current stacksize for task 26: unlimited
  | Current stacksize for task 27: unlimited
  | Current stacksize for task 28: unlimited
  | Current stacksize for task 29: unlimited
  | Current stacksize for task 30: unlimited
  | Current stacksize for task 31: unlimited
 
  Consistency checks for the contents of control.in are next.
 
  MPI_IN_PLACE appears to work with this MPI implementation.
  | Keeping use_mpi_in_place .true. (see manual).
  Target number of points in a grid batch is not set. Defaulting to  100
  Method for grid partitioning is not set. Defaulting to parallel hash+maxmin partitioning.
  Batch size limit is not set. Defaulting to    200
  By default, will store active basis functions for each batch.
  If in need of memory, prune_basis_once .false. can be used to disable this option.
  communication_type for Hartree potential was not specified.
  Defaulting to calc_hartree .
  Defaulting to Pulay charge density mixer.
  Pulay mixer: Number of relevant iterations not set.
  Defaulting to    8 iterations.
  Pulay mixer: Number of initial linear mixing iterations not set.
  Defaulting to    0 iterations.
  Work space size for distributed Hartree potential not set.
  Defaulting to   0.200000E+03 MB.
  Mixing parameter for charge density mixing has not been set.
  Using default: charge_mix_param =     0.0500.
  The mixing parameter will be adjusted in iteration number     2 of each s.c.f. cycle (i.e., each geometry step).
  Algorithm-dependent basis array size parameters:
  | n_max_pulay                         :        8
  Maximum number of self-consistency iterations not provided.
  Presetting  1000 iterations.
  Presetting      1001 iterations before the initial mixing cycle
  is restarted anyway using the sc_init_iter criterion / keyword.
  Presetting a factor      1.000 between actual scf density residual
  and density convergence criterion sc_accuracy_rho below which sc_init_iter
  takes no effect.
 * No s.c.f. convergence criteria (sc_accuracy_*) were provided in control.in.
 * The run will proceed with a reasonable default guess, but please check whether.
 * the s.c.f. cycles seem to take too much or too little time.
  Calculation of forces was not defined in control.in. No forces will be calculated.
  Geometry relaxation not requested: no relaxation will be performed.
 * Notice: The s.c.f. convergence criterion sc_accuracy_rho was not provided.
 * We used to stop in this case, and ask the user to provide reasonable
 * scf convergence criteria. However, this led some users to employ criteria
 * that led to extremely long run times, e.g., for simple relaxation.
 * We now preset a default value for sc_accuracy_rho if it is not set.
 * You may still wish to check if this setting is too tight or too loose for your needs.
 * Based on n_atoms and forces and force-correction status, FHI-aims chose sc_accuracy_rho =  0.800000E-05 .
  No accuracy limit for integral partition fn. given. Defaulting to  0.1000E-14.
  No threshold value for u(r) in integrations given. Defaulting to  0.1000E-05.
  No occupation type (smearing scheme) given. Defaulting to Gaussian broadening, width =  0.1000E-01 eV.
  The width will be adjusted in iteration number     2 of each s.c.f. cycle (i.e., each geometry step).
  No accuracy for occupation numbers given. Defaulting to  0.1000E-12.
  No threshold value for occupation numbers given. Defaulting to  0.0000E+00.
  No accuracy for fermi level given. Defaulting to  0.1000E-19.
  Maximum # of iterations to find E_F not set. Defaulting to  200.
  Preferred method for the eigenvalue solver ('KS_method') not specified in 'control.in'.
  Calling BLACS routine to test compilation state
  Since ScaLAPACK support is enabled, defaulting to ELPA (via ELSI).
  Will not use alltoall communication since running on < 1024 CPUs.
  Threshold for basis singularities not set.
  Default threshold for basis singularities:  0.1000E-04
  partition_type (choice of integration weights) for integrals was not specified.
  | Using a version of the partition function of Stratmann and coworkers ('stratmann_sparse').
  | At each grid point, the set of atoms used to build the partition table is smoothly restricted to
  | only those atoms whose free-atom density would be non-zero at that grid point.
  Partitioning for Hartree potential was not defined. Using partition_type for integrals.
  | Adjusted default value of keyword multip_moments_threshold to:       0.10000000E-11
  | This value may affect high angular momentum components of the Hartree potential in periodic systems.
  No q(lm)/r^(l+1) cutoff set for long-range Hartree potential.
  | Using default value of  0.100000E-09 .
  | Verify using the multipole_threshold keyword.
  Defaulting to new monopole extrapolation.
  Density update method: automatic selection selected.
  Charge integration errors on the 3D integration grid will be compensated
  by explicit normalization and distribution of residual charges.
  Use the "compensate_multipole_errors" flag to change this behaviour.
  Set 'collect_eigenvectors' to be '.true.' for use_density_matrix .false.
  Found no potential conflicts with setting 'use_local_index' for this calculation.
  Flag 'use_local_index' has not been set.
  Testing whether we classify this calculation as large-scale ...
  The calculation contains less than 100 atoms. This is most likely not a large-scale calculation.
  Not setting 'use_local_index'.
 
  Consistency checks for the contents of geometry.in are next.
 
  Number of empty states per atom not set in control.in - providing a guess from actual geometry.
  | Total number of empty states used during s.c.f. cycle:       12
  If you use a very high smearing, use empty_states (per atom!) in control.in to increase this value.

  Structure-dependent array size parameters: 
  | Maximum number of distinct radial functions  :       29
  | Maximum number of basis functions            :      147
  | Number of Kohn-Sham states (occupied + empty):       24
------------------------------------------------------------
  After read_input_data [GB]:   1033.33

  Performing system and environment tests:
  *** Environment variable OMP_NUM_THREADS is not set
  *** For performance reasons you might want to set it to 1
  | Checking for ScaLAPACK...
  | Testing pdtran()...
  | All pdtran() tests passed.
  After prepare_system [GB]:   1033.20

------------------------------------------------------------
          Preparing all fixed parts of the calculation.
------------------------------------------------------------
  Determining machine precision:
    2.225073858507201E-308
  Setting up grids for atomic and cluster calculations.

  Creating wave function, potential, and density for free atoms.
  Runtime choices for atomic solver:
  | atomic solver xc        : PBE
  | compute density gradient: 1
  | compute kinetic density : F

  Species: O

  List of occupied orbitals and eigenvalues:
    n    l              occ      energy [Ha]    energy [eV]
    1    0           2.0000       -18.927378      -515.0401
    2    0           2.0000        -0.880539       -23.9607
    2    1           4.0000        -0.331811        -9.0290


  Species: C

  List of occupied orbitals and eigenvalues:
    n    l              occ      energy [Ha]    energy [eV]
    1    0           2.0000       -10.049212      -273.4530
    2    0           2.0000        -0.504761       -13.7352
    2    1           2.0000        -0.193631        -5.2690


  Species: H

  List of occupied orbitals and eigenvalues:
    n    l              occ      energy [Ha]    energy [eV]
    1    0           1.0000        -0.238386        -6.4868


  Adding cutoff potential to free-atom effective potential.
  Creating fixed part of basis set: Ionic, confined, hydrogenic.
 
  O                    hydrogenic:
 
  List of hydrogenic basis orbitals: 
    n    l      effective z      eigenvalue [eV]  inner max. [A]     outer max. [A]     outer radius [A]   
    2    1         1.800000       -11.0118           1.178562           1.178562           5.432602
    3    2         7.600000       -87.3182           0.624125           0.624125           3.541477
    3    0         6.400000       -61.9209           0.061167           1.081902           4.306578
    4    3        11.600000      -114.4238           0.731631           0.731631           3.585037
    3    1         6.200000       -58.1113           0.255680           1.030270           4.306578
    3    2         5.600000       -47.4081           0.847233           0.847233           4.413171
    5    4        17.600000      -168.5799           0.749740           0.749740           3.372465
    1    0         0.750000        -7.6499           0.705284           0.705284           5.366593
 
 
  C                    hydrogenic:
 
  List of hydrogenic basis orbitals: 
    n    l      effective z      eigenvalue [eV]  inner max. [A]     outer max. [A]     outer radius [A]   
    2    1         1.700000        -9.8152           1.245706           1.245706           5.401630
    3    2         6.000000       -54.4226           0.792453           0.792453           4.178599
    2    0         4.900000       -81.6681           0.082559           0.562749           3.353238
    4    3         9.800000       -81.6681           0.863254           0.863254           4.028125
    3    1         5.200000       -40.8774           0.305389           1.215618           4.898362
    3    0         4.300000       -27.9508           0.091041           1.610311           5.401630
    5    4        14.400000      -112.8510           0.917666           0.917666           3.883070
    3    2         6.200000       -58.1113           0.763917           0.763917           4.077671
 
 
  H                    hydrogenic:
 
  List of hydrogenic basis orbitals: 
    n    l      effective z      eigenvalue [eV]  inner max. [A]     outer max. [A]     outer radius [A]   
    2    0         2.100000       -14.9965           0.193243           1.317208           5.373006
    2    1         3.500000       -41.6672           0.602369           0.602369           4.056063
    1    0         0.850000        -9.8292           0.624871           0.624871           5.373006
    2    1         3.700000       -46.5653           0.573622           0.573622           3.910002
    2    0         1.200000        -4.5995           0.334980           2.228188           5.505995
    3    2         7.000000       -74.0753           0.680699           0.680699           3.769201
 
  Creating atomic-like basis functions for current effective potential.

  Species O                   :

  List of atomic basis orbitals and eigenvalues:
    n    l      energy [Ha]    energy [eV]    outer radius [A]
    1    0       -18.927378      -515.0401       1.415765
    2    0        -0.880539       -23.9607       5.048385
    2    1        -0.331811        -9.0290       5.301386


  Species C                   :

  List of atomic basis orbitals and eigenvalues:
    n    l      energy [Ha]    energy [eV]    outer radius [A]
    1    0       -10.049212      -273.4530       1.934409
    2    0        -0.504761       -13.7352       5.271162
    2    1        -0.193631        -5.2690       5.401630


  Species H                   :

  List of atomic basis orbitals and eigenvalues:
    n    l      energy [Ha]    energy [eV]    outer radius [A]
    1    0        -0.238386        -6.4868       5.373006

  Assembling full basis from fixed parts.
  | Species O :   atomic orbital   1 s accepted.
  | Species O :    hydro orbital   3 s accepted.
  | Species O :   atomic orbital   2 s accepted.
  | Species O :    hydro orbital   1 s accepted.
  | Species O :    hydro orbital   3 p accepted.
  | Species O :   atomic orbital   2 p accepted.
  | Species O :    hydro orbital   2 p accepted.
  | Species O :    hydro orbital   3 d accepted.
  | Species O :    hydro orbital   3 d accepted.
  | Species O :    hydro orbital   4 f accepted.
  | Species O :    hydro orbital   5 g accepted.
  | Species C :   atomic orbital   1 s accepted.
  | Species C :    hydro orbital   2 s accepted.
  | Species C :   atomic orbital   2 s accepted.
  | Species C :    hydro orbital   3 s accepted.
  | Species C :    hydro orbital   3 p accepted.
  | Species C :   atomic orbital   2 p accepted.
  | Species C :    hydro orbital   2 p accepted.
  | Species C :    hydro orbital   3 d accepted.
  | Species C :    hydro orbital   3 d accepted.
  | Species C :    hydro orbital   4 f accepted.
  | Species C :    hydro orbital   5 g accepted.
  | Species H :   atomic orbital   1 s accepted.
  | Species H :    hydro orbital   2 s accepted.
  | Species H :    hydro orbital   1 s accepted.
  | Species H :    hydro orbital   2 s accepted.
  | Species H :    hydro orbital   2 p accepted.
  | Species H :    hydro orbital   2 p accepted.
  | Species H :    hydro orbital   3 d accepted.
 
  Basis size parameters after reduction:
  | Total number of radial functions:       29
  | Total number of basis functions :      147
 
  Per-task memory consumption for arrays in subroutine allocate_ext:
  |           7.249324MB.
  Testing on-site integration grid accuracy.
  |  Species  Function  <phi|h_atom|phi> (log., in eV)  <phi|h_atom|phi> (rad., in eV)
           1        1               -515.0401491148               -515.0401445421
           1        2                 15.1629302771                 15.1629233104
           1        3                -21.6127103295                -21.6127145442
           1        4                 14.4001435709                 14.4001765994
           1        5                 20.8862585187                 20.8862589493
           1        6                 -2.4803658578                 -2.4803665012
           1        7                 13.8586387760                 13.8586021622
           1        8                 45.8331828879                 45.8331828941
           1        9                 52.1851961049                 52.1851977023
           1       10                 85.4133898762                 85.4133899074
           1       11                142.1023296234                142.1023296272
           2       12               -273.4529725981               -273.4529710404
           2       13                -10.7721037329                -10.7721022112
           2       14                 17.6044132585                 17.6044162047
           2       15                 53.7706460564                 53.7706913676
           2       16                 15.0973290351                 15.0973256018
           2       17                  3.8545134677                  3.8545724672
           2       18                 12.1156992586                 12.1182024425
           2       19                 29.4352039288                 29.4352041803
           2       20                 54.8741144697                 54.8740268718
           2       21                 59.3556032036                 59.3556031368
           2       22                 93.4551837140                 93.4551837995
           3       23                 -6.4870767962                 -6.4871688290
           3       24                 13.5032046589                 13.5028982997
           3       25                 32.8195184817                 32.8119941656
           3       26                 33.8513856511                 33.7670005767 ***
           3       27                 28.8544614965                 28.8544615203
           3       28                 59.6326952547                 59.6327656460
           3       29                 60.2719308513                 60.2719305949
 * Note: Onsite integrals marked "***" above are less accurate than
 * onsite_accuracy_threshold =    0.03000 eV. Usually, this is harmless.
 * When in doubt, tighten the "radial" and/or "radial_multiplier" flags to check.

  Preparing densities etc. for the partition functions (integrals / Hartree potential).

  Preparations completed.
  max(cpu_time)          :      0.185 s.
  Wall clock time (cpu1) :      0.182 s.
------------------------------------------------------------
  After prepare_scf [GB]:   1031.50

  Initializing index lists of integration centers etc. from given atomic structure:
  | Number of centers in hartree potential         :         5
  | Number of centers in hartree multipole         :         5
  | Number of centers in electron density summation:         5
  | Number of centers in basis integrals           :         5
  | Number of centers in integrals                 :         5
  | Number of centers in hamiltonian               :         5
  After initialize_bc_dependent_lists [GB]:   1031.50

------------------------------------------------------------
          Begin self-consistency loop: Initialization.

          Date     :  20250311, Time     :  155014.072
------------------------------------------------------------
  Available memory per node after initialize_hartree_non_periodic_ewald [GB]:   1031.50
  Available memory per node after initialize_recip_hartree_potential [GB]:   1031.50
  * Using 32 tasks for Scalapack Eigenvalue solver.
  Detailed listing of tasks and assigned k-points:
  (for non-periodic systems, the "k-point" denotes an internal label only)
   Task     0 k-point     1 on RSL-arvutus
   Task     1 k-point     1 on RSL-arvutus
   Task     2 k-point     1 on RSL-arvutus
   Task     3 k-point     1 on RSL-arvutus
   Task     4 k-point     1 on RSL-arvutus
   Task     5 k-point     1 on RSL-arvutus
   Task     6 k-point     1 on RSL-arvutus
   Task     7 k-point     1 on RSL-arvutus
   Task     8 k-point     1 on RSL-arvutus
   Task     9 k-point     1 on RSL-arvutus
   Task    10 k-point     1 on RSL-arvutus
   Task    11 k-point     1 on RSL-arvutus
   Task    12 k-point     1 on RSL-arvutus
   Task    13 k-point     1 on RSL-arvutus
   Task    14 k-point     1 on RSL-arvutus
   Task    15 k-point     1 on RSL-arvutus
   Task    16 k-point     1 on RSL-arvutus
   Task    17 k-point     1 on RSL-arvutus
   Task    18 k-point     1 on RSL-arvutus
   Task    19 k-point     1 on RSL-arvutus
   Task    20 k-point     1 on RSL-arvutus
   Task    21 k-point     1 on RSL-arvutus
   Task    22 k-point     1 on RSL-arvutus
   Task    23 k-point     1 on RSL-arvutus
   Task    24 k-point     1 on RSL-arvutus
   Task    25 k-point     1 on RSL-arvutus
   Task    26 k-point     1 on RSL-arvutus
   Task    27 k-point     1 on RSL-arvutus
   Task    28 k-point     1 on RSL-arvutus
   Task    29 k-point     1 on RSL-arvutus
   Task    30 k-point     1 on RSL-arvutus
   Task    31 k-point     1 on RSL-arvutus
  Tasks:    32 split into      8 X      4 BLACS grid
  Calculating block size based on n_basis =          147  max_nprow =            8  max_npcol =            4
  ScaLAPACK block size set to:           16
  Allocating        0.012 MB for ovlp
  Allocating        0.012 MB for ham
  Allocating        0.012 MB for eigenvec
  Required Scalapack workspace - INTEGER:            1  REAL:             1
  Available memory per node after initialize_scalapack [GB]:   1031.50
  Available memory per node after aims_elsi_init_scf [GB]:   1031.50
  Available memory per node after initialize_fixed_grids [GB]:   1031.50
  Partitioning the integration grid into batches with parallel hashing+maxmin method.
  | Number of batches:     1152
  | Maximal batch size:     198
  | Minimal batch size:      25
  | Average batch size:      75.741
  | Standard deviation of batch sizes:      20.166

  Integration load balanced across    32 MPI tasks.
  Work distribution over tasks is as follows:
  Task     0 has       2683 integration points.
  Task     1 has       2820 integration points.
  Task     2 has       2805 integration points.
  Task     3 has       2709 integration points.
  Task     4 has       2711 integration points.
  Task     5 has       2735 integration points.
  Task     6 has       2699 integration points.
  Task     7 has       2684 integration points.
  Task     8 has       2814 integration points.
  Task     9 has       2798 integration points.
  Task    10 has       2705 integration points.
  Task    11 has       2710 integration points.
  Task    12 has       2696 integration points.
  Task    13 has       2795 integration points.
  Task    14 has       2695 integration points.
  Task    15 has       2706 integration points.
  Task    16 has       2691 integration points.
  Task    17 has       2687 integration points.
  Task    18 has       2788 integration points.
  Task    19 has       2704 integration points.
  Task    20 has       2731 integration points.
  Task    21 has       2742 integration points.
  Task    22 has       2698 integration points.
  Task    23 has       2701 integration points.
  Task    24 has       2689 integration points.
  Task    25 has       2801 integration points.
  Task    26 has       2680 integration points.
  Task    27 has       2706 integration points.
  Task    28 has       2792 integration points.
  Task    29 has       2694 integration points.
  Task    30 has       2699 integration points.
  Task    31 has       2686 integration points.
  Available memory per node after partition_grid [GB]:   1031.50
  Initializing partition tables, free-atom densities, potentials, etc. across the integration grid (initialize_grid_storage).
  | initialize_grid_storage: Actual outermost partition radius vs. multipole_radius_free
  | (-- VB: in principle, multipole_radius_free should be larger, hence this output)
  | Species        1: Confinement radius =              6.000000000000000 AA, multipole_radius_free =              6.064445521808699 AA.
  | Species        1: outer_partition_radius set to              6.064445521808699 AA .
  | Species        2: Confinement radius =              6.000000000000000 AA, multipole_radius_free =              6.029870734432609 AA.
  | Species        2: outer_partition_radius set to              6.029870734432609 AA .
  | Species        3: Confinement radius =              6.000000000000000 AA, multipole_radius_free =              6.071692442739658 AA.
  | Species        3: outer_partition_radius set to              6.071692442739658 AA .
  | The sparse table of interatomic distances needs          0.26 kbyte instead of         0.20 kbyte of memory.
  | Using the partition_type stratmann_smoother will reduce your memory usage.
  | Net number of integration points:    87254
  | of which are non-zero points    :    76517
  Available memory per node after initialize_grid_storage_p1 [GB]:   1031.49
  Renormalizing the initial density to the exact electron count on the 3D integration grid.
  | Initial density: Formal number of electrons (from input files) :      24.0000000000
  | Integrated number of electrons on 3D grid     :      23.9999992269
  | Charge integration error                      :      -0.0000007731
  | Normalization factor for density and gradient :       1.0000000322
  Renormalizing the free-atom superposition density to the exact electron count on the 3D integration grid.
  | Formal number of electrons (from input files) :      24.0000000000
  | Integrated number of electrons on 3D grid     :      23.9999992269
  | Charge integration error                      :      -0.0000007731
  | Normalization factor for density and gradient :       1.0000000322
  Obtaining max. number of non-zero basis functions in each batch (get_n_compute_maxes).
  | Maximal number of non-zero basis functions:      147 in task     0
  | Maximal number of non-zero basis functions:      147 in task     1
  | Maximal number of non-zero basis functions:      147 in task     2
  | Maximal number of non-zero basis functions:      147 in task     3
  | Maximal number of non-zero basis functions:      147 in task     4
  | Maximal number of non-zero basis functions:      147 in task     5
  | Maximal number of non-zero basis functions:      147 in task     6
  | Maximal number of non-zero basis functions:      147 in task     7
  | Maximal number of non-zero basis functions:      147 in task     8
  | Maximal number of non-zero basis functions:      147 in task     9
  | Maximal number of non-zero basis functions:      147 in task    10
  | Maximal number of non-zero basis functions:      147 in task    11
  | Maximal number of non-zero basis functions:      147 in task    12
  | Maximal number of non-zero basis functions:      147 in task    13
  | Maximal number of non-zero basis functions:      147 in task    14
  | Maximal number of non-zero basis functions:      147 in task    15
  | Maximal number of non-zero basis functions:      147 in task    16
  | Maximal number of non-zero basis functions:      147 in task    17
  | Maximal number of non-zero basis functions:      147 in task    18
  | Maximal number of non-zero basis functions:      147 in task    19
  | Maximal number of non-zero basis functions:      147 in task    20
  | Maximal number of non-zero basis functions:      147 in task    21
  | Maximal number of non-zero basis functions:      147 in task    22
  | Maximal number of non-zero basis functions:      147 in task    23
  | Maximal number of non-zero basis functions:      147 in task    24
  | Maximal number of non-zero basis functions:      147 in task    25
  | Maximal number of non-zero basis functions:      147 in task    26
  | Maximal number of non-zero basis functions:      147 in task    27
  | Maximal number of non-zero basis functions:      147 in task    28
  | Maximal number of non-zero basis functions:      147 in task    29
  | Maximal number of non-zero basis functions:      147 in task    30
  | Maximal number of non-zero basis functions:      147 in task    31
  Selecting the method for density update.
  Loop over occupied states selected for charge density update.
  Available memory per node after get_n_compute_maxes_p1 [GB]:   1031.49
  Allocating        0.027 MB for KS_eigenvector
  Available memory per node after allocate_matrices [GB]:   1031.49
  Available memory per node after init_comm_sparse_local_matrix_scalapack [GB]:   1031.49
  Integrating Hamiltonian matrix: batch-based integration.
  Time summed over all CPUs for integration: real work        0.898 s, elapsed        1.383 s => Consider using load balancing!
  Available memory per node after integrate hamiltonian matrix [GB]:   1031.48
  Integrating overlap matrix.
  Time summed over all CPUs for integration: real work        0.254 s, elapsed        0.367 s
  Available memory per node after integrate ovlp matrix [GB]:   1031.48
  Available memory per node after ASI_callbacks invoke [GB]:   1031.48
  Deallocating overlap matrix.
  Available memory per node after save_overlap_scalapack [GB]:   1031.48

  Updating Kohn-Sham eigenvalues and eigenvectors using ELSI and the ELPA eigensolver.
  Overlap matrix is not singular
  | Lowest and highest eigenvalues :  0.1783E-03,  0.4459E+01
  Finished singularity check of overlap matrix
  | Time :     0.006 s
  Starting ELPA eigensolver
  Finished Cholesky decomposition
  | Time :     0.002 s
  Finished transformation to standard eigenproblem
  | Time :     0.001 s
  Finished solving standard eigenproblem
  | Time :     0.004 s
  Finished back-transformation of eigenvectors
  | Time :     0.000 s

  Obtaining occupation numbers and electronic chemical potential using ELSI.
  | Note that, for insulating systems, the printed 'chemical potential' value is not uniquely defined.
  | It can be anywhere in the energy gap, as long as it correctly separates occupied and unoccupied states.
  | In systems with a gap, the physically relevant chemical potential is the VBM or HOMO.

  | Chemical potential (Fermi level):   -10.28921818 eV
  Available memory per node after advance_KS_solution [GB]:   1031.46
  Writing Kohn-Sham eigenvalues.

  State    Occupation    Eigenvalue [Ha]    Eigenvalue [eV]
      1       2.00000         -19.025746         -517.71688
      2       2.00000         -19.008303         -517.24225
      3       2.00000         -10.143761         -276.02579
      4       2.00000          -1.158713          -31.53020
      5       2.00000          -1.091301          -29.69582
      6       2.00000          -0.712619          -19.39134
      7       2.00000          -0.591180          -16.08684
      8       2.00000          -0.579891          -15.77964
      9       2.00000          -0.516686          -14.05975
     10       2.00000          -0.492607          -13.40452
     11       2.00000          -0.427884          -11.64331
     12       2.00000          -0.398322          -10.83889
     13       0.00000          -0.153397           -4.17413
     14       0.00000          -0.044550           -1.21228
     15       0.00000          -0.012892           -0.35081
     16       0.00000           0.048995            1.33322
     17       0.00000           0.065465            1.78139
     18       0.00000           0.092836            2.52619
     19       0.00000           0.109677            2.98445
     20       0.00000           0.138023            3.75580
     21       0.00000           0.143802            3.91306
     22       0.00000           0.169761            4.61944
     23       0.00000           0.182610            4.96907
     24       0.00000           0.223414            6.07942

  Highest occupied state (VBM) at    -10.83888747 eV
  | Occupation number:      2.00000000

  Lowest unoccupied state (CBM) at    -4.17413325 eV
  | Occupation number:      0.00000000

  Overall HOMO-LUMO gap:      6.66475422 eV.
  Calculating total energy contributions from superposition of free atom densities.

  Total energy components:
  | Sum of eigenvalues            :        -108.29402728 Ha       -2946.83041540 eV
  | XC energy correction          :         -22.77824732 Ha        -619.82764600 eV
  | XC potential correction       :          29.28076885 Ha         796.77025965 eV
  | Free-atom electrostatic energy:         -88.15759140 Ha       -2398.89011620 eV
  | Hartree energy correction     :           0.00000000 Ha           0.00000000 eV
  | Entropy correction            :           0.00000000 Ha           0.00000000 eV
  | ---------------------------
  | Total energy                  :        -189.94909715 Ha       -5168.77791795 eV
  | Total energy, T -> 0          :        -189.94909715 Ha       -5168.77791795 eV  <-- do not rely on this value for anything but (periodic) metals
  | Electronic free energy        :        -189.94909715 Ha       -5168.77791795 eV

  Derived energy quantities:
  | Kinetic energy                :         188.73416688 Ha        5135.71798317 eV
  | Electrostatic energy          :        -355.90501671 Ha       -9684.66825513 eV
  | Energy correction for multipole
  | error in Hartree potential    :           0.00000000 Ha           0.00000000 eV
  | Sum of eigenvalues per atom                           :        -589.36608308 eV
  | Total energy (T->0) per atom                          :       -1033.75558359 eV  <-- do not rely on this value for anything but (periodic) metals
  | Electronic free energy per atom                       :       -1033.75558359 eV
  Initialize hartree_potential_storage
  Max. number of atoms included in rho_multipole:            5

  End scf initialization - timings             :  max(cpu_time)    wall_clock(cpu1)
  | Time for scf. initialization                :        0.116 s           0.116 s
  | Boundary condition initialization           :        0.017 s           0.017 s
  | Integration                                 :        0.056 s           0.056 s
  | Solution of K.-S. eqns.                     :        0.016 s           0.017 s
  | Grid partitioning                           :        0.023 s           0.023 s
  | Preloading free-atom quantities on grid     :        0.014 s           0.014 s
  | Free-atom superposition energy              :        0.002 s           0.002 s
  | Total energy evaluation                     :        0.000 s           0.000 s

  Partial memory accounting:
  | Current value for overall tracked memory usage:
  |   Minimum:        0.123 MB (on task 10)
  |   Maximum:        0.146 MB (on task  0)
  |   Average:        0.126 MB
  | Peak value for overall tracked memory usage:
  |   Minimum:        2.372 MB (on task 10 after allocating zora_vector2)
  |   Maximum:        2.396 MB (on task  0 after allocating zora_vector2)
  |   Average:        2.376 MB
  | Largest tracked array allocation so far:
  |   Minimum:        0.666 MB (zora_vector1 on task  0)
  |   Maximum:        0.666 MB (zora_vector1 on task  0)
  |   Average:        0.666 MB
  Note:  These values currently only include a subset of arrays which are explicitly tracked.
  The "true" memory usage will be greater.
------------------------------------------------------------
  Available memory after initialize_scf [GB]:   1031.46
  Available memory after allocating mixing [GB]:   1031.46
  Evaluating new KS density.
  Integration grid: deviation in total charge (<rho> - N_e) =  -1.421085E-14

  Time for density update prior                :  max(cpu_time)    wall_clock(cpu1)
  | self-consistency iterative process          :        0.013 s           0.013 s
  Available memory before start of SCF loop [GB]:   1031.46

------------------------------------------------------------
          Begin self-consistency iteration #    1

  Date     :  20250311, Time     :  155014.202
------------------------------------------------------------
  Pulay mixing of updated and previous charge densities.
  Available memory per node after mixing [GB]:   1031.46
  Renormalizing the density to the exact electron count on the 3D integration grid.
  | Formal number of electrons (from input files) :      24.0000000000
  | Integrated number of electrons on 3D grid     :      24.0000000000
  | Charge integration error                      :      -0.0000000000
  | Normalization factor for density and gradient :       1.0000000000

  Evaluating partitioned Hartree potential by multipole expansion.
  | Original multipole sum: apparent total charge =  -0.449524E-14
  | Sum of charges compensated after spline to logarithmic grids =   0.178369E-06
  | Analytical far-field extrapolation by fixed multipoles:
  | Hartree multipole sum: apparent total charge =  -0.447371E-14
  Summing up the Hartree potential.
  Time summed over all CPUs for potential: real work        0.005 s, elapsed        0.007 s
  | RMS charge density error from multipole expansion :   0.301722E-03

  Integrating Hamiltonian matrix: batch-based integration.
  Time summed over all CPUs for integration: real work        0.795 s, elapsed        1.250 s => Consider using load balancing!

  Updating Kohn-Sham eigenvalues and eigenvectors using ELSI and the ELPA eigensolver.
  Starting ELPA eigensolver
  Finished transformation to standard eigenproblem
  | Time :     0.001 s
  Finished solving standard eigenproblem
  | Time :     0.003 s
  Finished back-transformation of eigenvectors
  | Time :     0.001 s

  Obtaining occupation numbers and electronic chemical potential using ELSI.
  | Note that, for insulating systems, the printed 'chemical potential' value is not uniquely defined.
  | It can be anywhere in the energy gap, as long as it correctly separates occupied and unoccupied states.
  | In systems with a gap, the physically relevant chemical potential is the VBM or HOMO.

  | Chemical potential (Fermi level):   -10.18894808 eV
  Writing Kohn-Sham eigenvalues.

  State    Occupation    Eigenvalue [Ha]    Eigenvalue [eV]
      1       2.00000         -19.001065         -517.04529
      2       2.00000         -18.974456         -516.32123
      3       2.00000         -10.137520         -275.85596
      4       2.00000          -1.145036          -31.15802
      5       2.00000          -1.077172          -29.31135
      6       2.00000          -0.704160          -19.16117
      7       2.00000          -0.578058          -15.72977
      8       2.00000          -0.567058          -15.43045
      9       2.00000          -0.505189          -13.74691
     10       2.00000          -0.480563          -13.07678
     11       2.00000          -0.413520          -11.25246
     12       2.00000          -0.382415          -10.40604
     13       0.00000          -0.144946           -3.94418
     14       0.00000          -0.042403           -1.15383
     15       0.00000          -0.011523           -0.31356
     16       0.00000           0.053585            1.45811
     17       0.00000           0.069958            1.90365
     18       0.00000           0.094722            2.57751
     19       0.00000           0.112222            3.05370
     20       0.00000           0.141364            3.84671
     21       0.00000           0.147325            4.00892
     22       0.00000           0.174479            4.74781
     23       0.00000           0.185299            5.04224
     24       0.00000           0.226422            6.16126

  Highest occupied state (VBM) at    -10.40603932 eV
  | Occupation number:      2.00000000

  Lowest unoccupied state (CBM) at    -3.94417954 eV
  | Occupation number:      0.00000000

  Overall HOMO-LUMO gap:      6.46185978 eV.

  Total energy components:
  | Sum of eigenvalues            :        -107.93242939 Ha       -2936.99083623 eV
  | XC energy correction          :         -22.81617680 Ha        -620.85975977 eV
  | XC potential correction       :          29.33034537 Ha         798.11930544 eV
  | Free-atom electrostatic energy:         -88.15759140 Ha       -2398.89011620 eV
  | Hartree energy correction     :          -0.35305327 Ha          -9.60706838 eV
  | Entropy correction            :          -0.00000000 Ha          -0.00000000 eV
  | ---------------------------
  | Total energy                  :        -189.92890550 Ha       -5168.22847514 eV
  | Total energy, T -> 0          :        -189.92890550 Ha       -5168.22847514 eV  <-- do not rely on this value for anything but (periodic) metals
  | Electronic free energy        :        -189.92890550 Ha       -5168.22847514 eV

  Derived energy quantities:
  | Kinetic energy                :         188.94917187 Ha        5141.56856672 eV
  | Electrostatic energy          :        -356.06190057 Ha       -9688.93728209 eV
  | Energy correction for multipole
  | error in Hartree potential    :          -0.00048901 Ha          -0.01330668 eV
  | Sum of eigenvalues per atom                           :        -587.39816725 eV
  | Total energy (T->0) per atom                          :       -1033.64569503 eV  <-- do not rely on this value for anything but (periodic) metals
  | Electronic free energy per atom                       :       -1033.64569503 eV
  Evaluating new KS density.
  Integration grid: deviation in total charge (<rho> - N_e) =   3.552714E-15

  Self-consistency convergence accuracy:
  | Change of charge density      :  0.3893E+00
  | Change of unmixed KS density  :  0.1405E+02
  | Change of sum of eigenvalues  :  0.9840E+01 eV
  | Change of total energy        :  0.5494E+00 eV


------------------------------------------------------------
  End self-consistency iteration #     1       :  max(cpu_time)    wall_clock(cpu1)
  | Time for this iteration                     :        0.067 s           0.067 s
  | Charge density update                       :        0.013 s           0.013 s
  | Density mixing                              :        0.000 s           0.000 s
  | Hartree multipole update                    :        0.001 s           0.002 s
  | Hartree multipole summation                 :        0.008 s           0.007 s
  | Integration                                 :        0.039 s           0.039 s
  | Solution of K.-S. eqns.                     :        0.005 s           0.005 s
  | Total energy evaluation                     :        0.000 s           0.000 s

  Partial memory accounting:
  | Current value for overall tracked memory usage:
  |   Minimum:        1.615 MB (on task 26)
  |   Maximum:        1.707 MB (on task  1)
  |   Average:        1.645 MB
  | Peak value for overall tracked memory usage:
  |   Minimum:        3.782 MB (on task 26 after allocating zora_vector2)
  |   Maximum:        3.874 MB (on task  1 after allocating zora_vector2)
  |   Average:        3.812 MB
  | Largest tracked array allocation so far:
  |   Minimum:        0.666 MB (zora_vector1 on task  0)
  |   Maximum:        0.666 MB (zora_vector1 on task  0)
  |   Average:        0.666 MB
  Note:  These values currently only include a subset of arrays which are explicitly tracked.
  The "true" memory usage will be greater.
------------------------------------------------------------

------------------------------------------------------------
          Begin self-consistency iteration #    2

  Date     :  20250311, Time     :  155014.269
------------------------------------------------------------
  Pulay mixing of updated and previous charge densities.
  Available memory per node after mixing [GB]:   1031.46
  Renormalizing the density to the exact electron count on the 3D integration grid.
  | Formal number of electrons (from input files) :      24.0000000000
  | Integrated number of electrons on 3D grid     :      24.0000000000
  | Charge integration error                      :       0.0000000000
  | Normalization factor for density and gradient :       1.0000000000

  Evaluating partitioned Hartree potential by multipole expansion.
  | Original multipole sum: apparent total charge =  -0.265656E-14
  | Sum of charges compensated after spline to logarithmic grids =   0.857978E-06
  | Analytical far-field extrapolation by fixed multipoles:
  | Hartree multipole sum: apparent total charge =  -0.263196E-14
  Summing up the Hartree potential.
  Time summed over all CPUs for potential: real work        0.005 s, elapsed        0.007 s
  | RMS charge density error from multipole expansion :   0.225806E-02

  Integrating Hamiltonian matrix: batch-based integration.
  Time summed over all CPUs for integration: real work        0.791 s, elapsed        1.257 s => Consider using load balancing!

  Updating Kohn-Sham eigenvalues and eigenvectors using ELSI and the ELPA eigensolver.
  Starting ELPA eigensolver
  Finished transformation to standard eigenproblem
  | Time :     0.001 s
  Finished solving standard eigenproblem
  | Time :     0.003 s
  Finished back-transformation of eigenvectors
  | Time :     0.001 s

  Obtaining occupation numbers and electronic chemical potential using ELSI.
  | Note that, for insulating systems, the printed 'chemical potential' value is not uniquely defined.
  | It can be anywhere in the energy gap, as long as it correctly separates occupied and unoccupied states.
  | In systems with a gap, the physically relevant chemical potential is the VBM or HOMO.

  | Chemical potential (Fermi level):    -5.44674609 eV
  Highest occupied state (VBM) at     -7.77864750 eV
  | Occupation number:      2.00000000

  Lowest unoccupied state (CBM) at    -2.42159825 eV
  | Occupation number:      0.00000000

  Overall HOMO-LUMO gap:      5.35704926 eV.

  Checking to see if s.c.f. parameters should be adjusted.
  The system likely has a gap. Increased the default Pulay mixing parameter (charge_mix_param). Value:   0.200000 .
  Kept the default occupation width. Value:   0.010000 eV.

  Total energy components:
  | Sum of eigenvalues            :        -105.74809817 Ha       -2877.55215936 eV
  | XC energy correction          :         -23.05422855 Ha        -627.33747751 eV
  | XC potential correction       :          29.64134009 Ha         806.58190221 eV
  | Free-atom electrostatic energy:         -88.15759140 Ha       -2398.89011620 eV
  | Hartree energy correction     :          -2.54694228 Ha         -69.30582561 eV
  | Entropy correction            :           0.00000000 Ha           0.00000000 eV
  | ---------------------------
  | Total energy                  :        -189.86552031 Ha       -5166.50367648 eV
  | Total energy, T -> 0          :        -189.86552031 Ha       -5166.50367648 eV  <-- do not rely on this value for anything but (periodic) metals
  | Electronic free energy        :        -189.86552031 Ha       -5166.50367648 eV

  Derived energy quantities:
  | Kinetic energy                :         190.12020624 Ha        5173.43403311 eV
  | Electrostatic energy          :        -356.93149799 Ha       -9712.60023207 eV
  | Energy correction for multipole
  | error in Hartree potential    :          -0.00363927 Ha          -0.09902953 eV
  | Sum of eigenvalues per atom                           :        -575.51043187 eV
  | Total energy (T->0) per atom                          :       -1033.30073530 eV  <-- do not rely on this value for anything but (periodic) metals
  | Electronic free energy per atom                       :       -1033.30073530 eV
  Evaluating new KS density.
  Integration grid: deviation in total charge (<rho> - N_e) =  -1.776357E-14

  Self-consistency convergence accuracy:
  | Change of charge density      :  0.3466E+00
  | Change of unmixed KS density  :  0.3367E-01
  | Change of sum of eigenvalues  :  0.5944E+02 eV
  | Change of total energy        :  0.1725E+01 eV


------------------------------------------------------------
  End self-consistency iteration #     2       :  max(cpu_time)    wall_clock(cpu1)
  | Time for this iteration                     :        0.067 s           0.067 s
  | Charge density update                       :        0.013 s           0.013 s
  | Density mixing                              :        0.001 s           0.001 s
  | Hartree multipole update                    :        0.001 s           0.001 s
  | Hartree multipole summation                 :        0.007 s           0.007 s
  | Integration                                 :        0.040 s           0.040 s
  | Solution of K.-S. eqns.                     :        0.005 s           0.005 s
  | Total energy evaluation                     :        0.000 s           0.000 s

  Partial memory accounting:
  | Current value for overall tracked memory usage:
  |   Minimum:        1.616 MB (on task 26)
  |   Maximum:        1.708 MB (on task  1)
  |   Average:        1.646 MB
  | Peak value for overall tracked memory usage:
  |   Minimum:        3.783 MB (on task 26 after allocating zora_vector2)
  |   Maximum:        3.875 MB (on task  1 after allocating zora_vector2)
  |   Average:        3.812 MB
  | Largest tracked array allocation so far:
  |   Minimum:        0.666 MB (zora_vector1 on task  0)
  |   Maximum:        0.666 MB (zora_vector1 on task  0)
  |   Average:        0.666 MB
  Note:  These values currently only include a subset of arrays which are explicitly tracked.
  The "true" memory usage will be greater.
------------------------------------------------------------

------------------------------------------------------------
          Begin self-consistency iteration #    3

  Date     :  20250311, Time     :  155014.336
------------------------------------------------------------
  Pulay mixing of updated and previous charge densities.
  Available memory per node after mixing [GB]:   1031.46
  Renormalizing the density to the exact electron count on the 3D integration grid.
  | Formal number of electrons (from input files) :      24.0000000000
  | Integrated number of electrons on 3D grid     :      24.0000000000
  | Charge integration error                      :      -0.0000000000
  | Normalization factor for density and gradient :       1.0000000000

  Evaluating partitioned Hartree potential by multipole expansion.
  | Original multipole sum: apparent total charge =   0.464897E-14
  | Sum of charges compensated after spline to logarithmic grids =   0.811125E-06
  | Analytical far-field extrapolation by fixed multipoles:
  | Hartree multipole sum: apparent total charge =   0.442759E-14
  Summing up the Hartree potential.
  Time summed over all CPUs for potential: real work        0.005 s, elapsed        0.007 s
  | RMS charge density error from multipole expansion :   0.389647E-02

  Integrating Hamiltonian matrix: batch-based integration.
  Time summed over all CPUs for integration: real work        0.782 s, elapsed        1.259 s => Consider using load balancing!

  Updating Kohn-Sham eigenvalues and eigenvectors using ELSI and the ELPA eigensolver.
  Starting ELPA eigensolver
  Finished transformation to standard eigenproblem
  | Time :     0.001 s
  Finished solving standard eigenproblem
  | Time :     0.003 s
  Finished back-transformation of eigenvectors
  | Time :     0.000 s

  Obtaining occupation numbers and electronic chemical potential using ELSI.
  | Note that, for insulating systems, the printed 'chemical potential' value is not uniquely defined.
  | It can be anywhere in the energy gap, as long as it correctly separates occupied and unoccupied states.
  | In systems with a gap, the physically relevant chemical potential is the VBM or HOMO.

  | Chemical potential (Fermi level):    -5.34883616 eV
  Highest occupied state (VBM) at     -8.07087583 eV
  | Occupation number:      2.00000000

  Lowest unoccupied state (CBM) at    -2.07214124 eV
  | Occupation number:      0.00000000

  Overall HOMO-LUMO gap:      5.99873459 eV.

  Total energy components:
  | Sum of eigenvalues            :        -105.59164239 Ha       -2873.29478106 eV
  | XC energy correction          :         -23.06105309 Ha        -627.52318261 eV
  | XC potential correction       :          29.64940451 Ha         806.80134642 eV
  | Free-atom electrostatic energy:         -88.15759140 Ha       -2398.89011620 eV
  | Hartree energy correction     :          -2.70369445 Ha         -73.57126921 eV
  | Entropy correction            :           0.00000000 Ha           0.00000000 eV
  | ---------------------------
  | Total energy                  :        -189.86457682 Ha       -5166.47800265 eV
  | Total energy, T -> 0          :        -189.86457682 Ha       -5166.47800265 eV  <-- do not rely on this value for anything but (periodic) metals
  | Electronic free energy        :        -189.86457682 Ha       -5166.47800265 eV

  Derived energy quantities:
  | Kinetic energy                :         189.60227214 Ha        5159.34032927 eV
  | Electrostatic energy          :        -356.40579587 Ha       -9698.29514932 eV
  | Energy correction for multipole
  | error in Hartree potential    :          -0.00566632 Ha          -0.15418844 eV
  | Sum of eigenvalues per atom                           :        -574.65895621 eV
  | Total energy (T->0) per atom                          :       -1033.29560053 eV  <-- do not rely on this value for anything but (periodic) metals
  | Electronic free energy per atom                       :       -1033.29560053 eV
  Evaluating new KS density.
  Integration grid: deviation in total charge (<rho> - N_e) =   2.486900E-14

  Self-consistency convergence accuracy:
  | Change of charge density      :  0.1727E+00
  | Change of unmixed KS density  :  0.2032E+00
  | Change of sum of eigenvalues  :  0.4257E+01 eV
  | Change of total energy        :  0.2567E-01 eV


------------------------------------------------------------
  End self-consistency iteration #     3       :  max(cpu_time)    wall_clock(cpu1)
  | Time for this iteration                     :        0.065 s           0.065 s
  | Charge density update                       :        0.013 s           0.012 s
  | Density mixing                              :        0.000 s           0.000 s
  | Hartree multipole update                    :        0.001 s           0.001 s
  | Hartree multipole summation                 :        0.007 s           0.008 s
  | Integration                                 :        0.040 s           0.039 s
  | Solution of K.-S. eqns.                     :        0.004 s           0.005 s
  | Total energy evaluation                     :        0.000 s           0.000 s

  Partial memory accounting:
  | Current value for overall tracked memory usage:
  |   Minimum:        1.616 MB (on task 26)
  |   Maximum:        1.708 MB (on task  1)
  |   Average:        1.646 MB
  | Peak value for overall tracked memory usage:
[...]
  |   Minimum:        1.616 MB (on task 26)
  |   Maximum:        1.708 MB (on task  1)
  |   Average:        1.646 MB
  | Peak value for overall tracked memory usage:
  |   Minimum:        3.783 MB (on task 26 after allocating zora_vector2)
  |   Maximum:        3.875 MB (on task  1 after allocating zora_vector2)
  |   Average:        3.813 MB
  | Largest tracked array allocation so far:
  |   Minimum:        0.666 MB (zora_vector1 on task  0)
  |   Maximum:        0.666 MB (zora_vector1 on task  0)
  |   Average:        0.666 MB
  Note:  These values currently only include a subset of arrays which are explicitly tracked.
  The "true" memory usage will be greater.
------------------------------------------------------------

------------------------------------------------------------
          Begin self-consistency iteration #   14

  Date     :  20250311, Time     :  155015.061
------------------------------------------------------------
  Pulay mixing of updated and previous charge densities.
  Available memory per node after mixing [GB]:   1031.46
  Renormalizing the density to the exact electron count on the 3D integration grid.
  | Formal number of electrons (from input files) :      24.0000000000
  | Integrated number of electrons on 3D grid     :      24.0000000000
  | Charge integration error                      :       0.0000000000
  | Normalization factor for density and gradient :       1.0000000000

  Evaluating partitioned Hartree potential by multipole expansion.
  | Original multipole sum: apparent total charge =   0.595265E-14
  | Sum of charges compensated after spline to logarithmic grids =   0.110878E-05
  | Analytical far-field extrapolation by fixed multipoles:
  | Hartree multipole sum: apparent total charge =   0.580507E-14
  Summing up the Hartree potential.
  Time summed over all CPUs for potential: real work        0.004 s, elapsed        0.007 s
  | RMS charge density error from multipole expansion :   0.559680E-02

  Integrating Hamiltonian matrix: batch-based integration.
  Time summed over all CPUs for integration: real work        0.780 s, elapsed        1.256 s => Consider using load balancing!

  Updating Kohn-Sham eigenvalues and eigenvectors using ELSI and the ELPA eigensolver.
  Starting ELPA eigensolver
  Finished transformation to standard eigenproblem
  | Time :     0.000 s
  Finished solving standard eigenproblem
  | Time :     0.003 s
  Finished back-transformation of eigenvectors
  | Time :     0.001 s

  Obtaining occupation numbers and electronic chemical potential using ELSI.
  | Note that, for insulating systems, the printed 'chemical potential' value is not uniquely defined.
  | It can be anywhere in the energy gap, as long as it correctly separates occupied and unoccupied states.
  | In systems with a gap, the physically relevant chemical potential is the VBM or HOMO.

  | Chemical potential (Fermi level):    -5.07777782 eV
  Highest occupied state (VBM) at     -6.96390095 eV
  | Occupation number:      2.00000000

  Lowest unoccupied state (CBM) at    -1.58530897 eV
  | Occupation number:      0.00000000

  Overall HOMO-LUMO gap:      5.37859197 eV.

  Total energy components:
  | Sum of eigenvalues            :        -105.04117059 Ha       -2858.31568120 eV
  | XC energy correction          :         -23.12431693 Ha        -629.24467925 eV
  | XC potential correction       :          29.73177172 Ha         809.04267207 eV
  | Free-atom electrostatic energy:         -88.15759140 Ha       -2398.89011620 eV
  | Hartree energy correction     :          -3.26461701 Ha         -88.83474869 eV
  | Entropy correction            :           0.00000000 Ha           0.00000000 eV
  | ---------------------------
  | Total energy                  :        -189.85592421 Ha       -5166.24255326 eV
  | Total energy, T -> 0          :        -189.85592421 Ha       -5166.24255326 eV  <-- do not rely on this value for anything but (periodic) metals
  | Electronic free energy        :        -189.85592421 Ha       -5166.24255326 eV

  Derived energy quantities:
  | Kinetic energy                :         189.42862072 Ha        5154.61503359 eV
  | Electrostatic energy          :        -356.16022800 Ha       -9691.61290761 eV
  | Energy correction for multipole
  | error in Hartree potential    :          -0.00792825 Ha          -0.21573853 eV
  | Sum of eigenvalues per atom                           :        -571.66313624 eV
  | Total energy (T->0) per atom                          :       -1033.24851065 eV  <-- do not rely on this value for anything but (periodic) metals
  | Electronic free energy per atom                       :       -1033.24851065 eV

  Self-consistency convergence accuracy:
  | Change of charge density      :  0.2124E-05
  | Change of unmixed KS density  :  0.1169E-04
  | Change of sum of eigenvalues  : -0.1098E-04 eV
  | Change of total energy        : -0.2230E-08 eV

  Writing Kohn-Sham eigenvalues.

  State    Occupation    Eigenvalue [Ha]    Eigenvalue [eV]
      1       2.00000         -18.847793         -512.87454
      2       2.00000         -18.792123         -511.35969
      3       2.00000         -10.030615         -272.94693
      4       2.00000          -1.032631          -28.09932
      5       2.00000          -0.951563          -25.89334
      6       2.00000          -0.612969          -16.67974
      7       2.00000          -0.473234          -12.87736
      8       2.00000          -0.443715          -12.07411
      9       2.00000          -0.410813          -11.17880
     10       2.00000          -0.367187           -9.99167
     11       2.00000          -0.302022           -8.21844
     12       2.00000          -0.255919           -6.96390
     13       0.00000          -0.058259           -1.58531
     14       0.00000          -0.017342           -0.47190
     15       0.00000           0.013839            0.37657
     16       0.00000           0.098863            2.69021
     17       0.00000           0.111247            3.02717
     18       0.00000           0.118139            3.21473
     19       0.00000           0.144766            3.93928
     20       0.00000           0.171766            4.67400
     21       0.00000           0.187951            5.11441
     22       0.00000           0.211251            5.74843
     23       0.00000           0.236101            6.42463
     24       0.00000           0.261264            7.10934

  Highest occupied state (VBM) at     -6.96390095 eV
  | Occupation number:      2.00000000

  Lowest unoccupied state (CBM) at    -1.58530897 eV
  | Occupation number:      0.00000000

  Overall HOMO-LUMO gap:      5.37859197 eV.

  | Chemical Potential                          :    -5.07777782 eV
  | Note that, for insulating systems, the printed 'chemical potential' value is not uniquely defined.
  | It can be anywhere in the energy gap, as long as it correctly separates occupied and unoccupied states.
  | In systems with a gap, the physically relevant chemical potential is the VBM or HOMO.

  Self-consistency cycle converged.


------------------------------------------------------------
  End self-consistency iteration #    14       :  max(cpu_time)    wall_clock(cpu1)
  | Time for this iteration                     :        0.053 s           0.053 s
  | Charge density update                       :        0.000 s           0.000 s
  | Density mixing                              :        0.001 s           0.001 s
  | Hartree multipole update                    :        0.001 s           0.001 s
  | Hartree multipole summation                 :        0.007 s           0.007 s
  | Integration                                 :        0.040 s           0.040 s
  | Solution of K.-S. eqns.                     :        0.004 s           0.004 s
  | Total energy evaluation                     :        0.000 s           0.000 s

  Partial memory accounting:
  | Current value for overall tracked memory usage:
  |   Minimum:        1.616 MB (on task 26)
  |   Maximum:        1.708 MB (on task  1)
  |   Average:        1.646 MB
  | Peak value for overall tracked memory usage:
  |   Minimum:        3.783 MB (on task 26 after allocating zora_vector2)
  |   Maximum:        3.875 MB (on task  1 after allocating zora_vector2)
  |   Average:        3.813 MB
  | Largest tracked array allocation so far:
  |   Minimum:        0.666 MB (zora_vector1 on task  0)
  |   Maximum:        0.666 MB (zora_vector1 on task  0)
  |   Average:        0.666 MB
  Note:  These values currently only include a subset of arrays which are explicitly tracked.
  The "true" memory usage will be greater.
------------------------------------------------------------

------------------------------------------------------------
          Post-processing: scaled ZORA corrections to eigenvalues and total energy.

  Date     :  20250311, Time     :  155015.114
------------------------------------------------------------
  Computing correction matrix for scaled ZORA eigenvalues.
  Evaluating scaled zora correction for each Kohn-Sham eigenstate.
  Evaluating scaled zora correction for each Kohn-Sham eigenstate.
  Writing Kohn-Sham eigenvalues.

  State    Occupation    Eigenvalue [Ha]    Eigenvalue [eV]
      1       2.00000         -18.833189         -512.47715
      2       2.00000         -18.777562         -510.96346
      3       2.00000         -10.026359         -272.83110
      4       2.00000          -1.032561          -28.09740
      5       2.00000          -0.951489          -25.89134
      6       2.00000          -0.612939          -16.67891
      7       2.00000          -0.473213          -12.87679
      8       2.00000          -0.443686          -12.07330
      9       2.00000          -0.410794          -11.17827
     10       2.00000          -0.367164           -9.99105
     11       2.00000          -0.302003           -8.21791
     12       2.00000          -0.255903           -6.96346
     13       0.00000          -0.058256           -1.58522
     14       0.00000          -0.017342           -0.47189
     15       0.00000           0.013839            0.37657
     16       0.00000           0.098861            2.69015
     17       0.00000           0.111243            3.02708
     18       0.00000           0.118137            3.21468
     19       0.00000           0.144762            3.93917
     20       0.00000           0.171763            4.67391
     21       0.00000           0.187948            5.11432
     22       0.00000           0.211247            5.74832
     23       0.00000           0.236089            6.42431
     24       0.00000           0.261256            7.10915

  Highest occupied state (VBM) at     -6.96346324 eV
  | Occupation number:      2.00000000

  Lowest unoccupied state (CBM) at    -1.58522007 eV
  | Occupation number:      0.00000000

  Overall HOMO-LUMO gap:      5.37824317 eV.

  Total energy components:
  | Sum of eigenvalues            :        -104.97372048 Ha       -2856.48027043 eV
  | XC energy correction          :         -23.12431693 Ha        -629.24467925 eV
  | XC potential correction       :          29.73177172 Ha         809.04267207 eV
  | Free-atom electrostatic energy:         -88.15759140 Ha       -2398.89011620 eV
  | Hartree energy correction     :          -3.26461701 Ha         -88.83474869 eV
  | Entropy correction            :           0.00000000 Ha           0.00000000 eV
  | ---------------------------
  | Total energy                  :        -189.78847410 Ha       -5164.40714249 eV
  | Total energy, T -> 0          :        -189.78847410 Ha       -5164.40714249 eV  <-- do not rely on this value for anything but (periodic) metals
  | Electronic free energy        :        -189.78847410 Ha       -5164.40714249 eV

  Derived energy quantities:
  | Kinetic energy                :         189.49607082 Ha        5156.45044436 eV
  | Electrostatic energy          :        -356.16022800 Ha       -9691.61290761 eV
  | Energy correction for multipole
  | error in Hartree potential    :          -0.00792825 Ha          -0.21573853 eV
  | Sum of eigenvalues per atom                           :        -571.29605409 eV
  | Total energy (T->0) per atom                          :       -1032.88142850 eV  <-- do not rely on this value for anything but (periodic) metals
  | Electronic free energy per atom                       :       -1032.88142850 eV
  End evaluation of scaled ZORA corrections.
  | Time for scaled ZORA corrections            :        0.046 s           0.053 s
------------------------------------------------------------

  Energy and forces in a compact form:
  | Total energy uncorrected      :         -0.516440714249267E+04 eV
  | Total energy corrected        :         -0.516440714249267E+04 eV  <-- do not rely on this value for anything but (periodic) metals
  | Electronic free energy        :         -0.516440714249267E+04 eV

  ------------------------------------ 
  Start decomposition of the XC Energy 
  ------------------------------------ 
  X and C from original XC functional choice 
  Hartree-Fock Energy :          0.000000000 Ha              0.000000000 eV
  X Energy            :        -22.324394395 Ha           -607.477679622 eV
  C Energy            :         -0.799922533 Ha            -21.766999624 eV
  XC Energy w/o HF    :        -23.124316929 Ha           -629.244679246 eV
  Total XC Energy     :        -23.124316929 Ha           -629.244679246 eV
  ------------------------------------ 
  LDA X and C from self-consistent density 
  X Energy LDA        :        -20.272715787 Ha           -551.648664151 eV
  C Energy LDA        :         -1.615584479 Ha            -43.962290453 eV
  ------------------------------------ 
  End decomposition of the XC Energy 
  ------------------------------------ 

------------------------------------------------------------

------------------------------------------------------------------------------
  Final output of selected total energy values:

  The following output summarizes some interesting total energy values
  at the end of a run (AFTER all relaxation, molecular dynamics, etc.).

  | Total energy of the DFT / Hartree-Fock s.c.f. calculation      :          -5164.407142493 eV
  | Final zero-broadening corrected energy (caution - metals only) :          -5164.407142493 eV
  | For reference only, the value of 1 Hartree used in FHI-aims is :             27.211384500 eV

  Before relying on these values, please be sure to understand exactly which
  total energy value is referred to by a given number. Different objects may
  all carry the same name 'total energy'. Definitions:

  Total energy of the DFT / Hartree-Fock s.c.f. calculation:
  | Note that this energy does not include ANY quantities calculated after the
  | s.c.f. cycle, in particular not ANY RPA, MP2, etc. many-body perturbation terms.
  | Scalar relativistic effects have been included in the 'scaled ZORA' approximation.

  Final zero-broadening corrected energy:
  | For metallic systems only, a broadening of the occupation numbers at the Fermi
  | level can be extrapolated back to zero broadening by an electron-gas inspired
  | formula. For all systems that are not real metals, this value can be
  | meaningless and should be avoided.

------------------------------------------------------------------------------
  Methods described in the following list of references were used in this FHI-aims run.
  If you publish the results, please make sure to cite these reference if they apply.
  FHI-aims is an academic code, and for our developers (often, Ph.D. students
  and postdocs), scientific credit in the community is essential.
  Thank you for helping us!

  For any use of FHI-aims, please cite:

    Volker Blum, Ralf Gehrke, Felix Hanke, Paula Havu, Ville Havu,
    Xinguo Ren, Karsten Reuter, and Matthias Scheffler
    'Ab initio molecular simulations with numeric atom-centered orbitals'
    Computer Physics Communications 180, 2175-2196 (2009)
    http://doi.org/10.1016/j.cpc.2009.06.022


  The ELSI infrastructure was used in your run to solve the Kohn-Sham electronic structure.
  Please check out https://wordpress.elsi-interchange.org to learn more.
  If scalability is important for your project, please acknowledge ELSI by citing:

    V. W-z. Yu, F. Corsetti, A. Garcia, W. P. Huhn, M. Jacquelin, W. Jia,
    B. Lange, L. Lin, J. Lu, W. Mi, A. Seifitokaldani, A. Vazquez-Mayagoitia,
    C. Yang, H. Yang, and V. Blum
    'ELSI: A unified software interface for Kohn-Sham electronic structure solvers'
    Computer Physics Communications 222, 267-285 (2018).
    http://doi.org/10.1016/j.cpc.2017.09.007


  For the real-space grid partitioning and parallelization used in this calculation, please cite:

    Ville Havu, Volker Blum, Paula Havu, and Matthias Scheffler,
    'Efficient O(N) integration for all-electron electronic structure calculation'
    'using numerically tabulated basis functions'
    Journal of Computational Physics 228, 8367-8379 (2009).
    http://doi.org/10.1016/j.jcp.2009.08.008

  Of course, there are many other important community references, e.g., those cited in the
  above references. Our list is limited to references that describe implementations in the
  FHI-aims code. The reason is purely practical (length of this list) - please credit others as well.

------------------------------------------------------------
          Leaving FHI-aims.
          Date     :  20250311, Time     :  155015.179

          Computational steps:
          | Number of self-consistency cycles          :           14
          | Number of SCF (re)initializations          :            1

          Detailed time accounting                     :  max(cpu_time)    wall_clock(cpu1)
          | Total time                                  :        1.348 s           1.355 s
          | Preparation time                            :        0.185 s           0.182 s
          | Boundary condition initalization            :        0.017 s           0.017 s
          | Grid partitioning                           :        0.023 s           0.023 s
          | Preloading free-atom quantities on grid     :        0.014 s           0.014 s
          | Free-atom superposition energy              :        0.002 s           0.002 s
          | Total time for integrations                 :        0.609 s           0.608 s
          | Total time for solution of K.-S. equations  :        0.077 s           0.081 s
          | Total time for density update               :        0.178 s           0.177 s
          | Total time for mixing                       :        0.010 s           0.008 s
          | Total time for Hartree multipole update     :        0.015 s           0.017 s
          | Total time for Hartree multipole sum        :        0.103 s           0.102 s
          | Total time for total energy evaluation      :        0.001 s           0.001 s
          | Total time for scaled ZORA corrections      :        0.046 s           0.053 s

          Partial memory accounting:
          | Residual value for overall tracked memory usage across tasks:     0.000000 MB (should be 0.000000 MB)
          | Peak values for overall tracked memory usage:
          |   Minimum:        3.783 MB (on task 26 after allocating zora_vector2)
          |   Maximum:        3.875 MB (on task  1 after allocating zora_vector2)
          |   Average:        3.813 MB
          | Largest tracked array allocation:
          |   Minimum:        0.666 MB (zora_vector1 on task  0)
          |   Maximum:        0.666 MB (zora_vector1 on task  0)
          |   Average:        0.666 MB
          Note:  These values currently only include a subset of arrays which are explicitly tracked.
          The "true" memory usage will be greater.

          Have a nice day.
------------------------------------------------------------
