------------------------------------------------------------
          Invoking FHI-aims ...

          When using FHI-aims, please cite the following reference:

            Volker Blum, Ralf Gehrke, Felix Hanke, Paula Havu,
            Ville Havu, Xinguo Ren, Karsten Reuter, and Matthias Scheffler,
            'Ab Initio Molecular Simulations with Numeric Atom-Centered Orbitals',
            Computer Physics Communications 180, 2175-2196 (2009)

          In addition, many other developments in FHI-aims are likely important for
          your particular application. If so, please cite them. A partial list of references
          is written at the end of this file. Thank you for giving credit to the authors
          of these developments.

          For general information about FHI-aims please find us at

            https://fhi-aims.org

          Online tutorials can be found at

            https://fhi-aims-club.gitlab.io/tutorials/tutorials-overview/

          For any questions about FHI-aims, please visit our slack channel at

            https://fhi-aims.slack.com

          and our main development and support site at

            https://aims-git.rz-berlin.mpg.de .

          The latter site, in particular, has a wiki to collect information, as well
          as an issue tracker to log discussions, suggest improvements, and report issues
          or bugs. https://aims-git.rz-berlin.mpg.de is also the main development site
          of the project and all new and updated code versions can be obtained there.
          Please send an email to aims-coordinators@fhi-berlin.mpg.de and we will add
          you to these sites. They are for you and everyone is welcome there.

------------------------------------------------------------



  Date     :  20250328, Time     :  010001.592
  Time zero on CPU 1             :   0.594042000000000E+00  s.
  Internal wall clock time zero  :           512355601.592  s.

  FHI-aims created a unique identifier for this run for later identification
  aims_uuid : 5CF45AFB-1F4E-4C8E-A27D-55FF49B3C6B2

  Build configuration of the current instance of FHI-aims
  -------------------------------------------------------
  FHI-aims version      : 240605
  Commit number         : b001b2e18
  CMake host system     : Linux-6.5.0-41-generic
  CMake version         : 3.22.1
  Fortran compiler      : /opt/intel/oneapi/mpi/2021.12/bin/mpiifort (IntelLLVM) version 2024.1.0
  Fortran compiler flags: -fc=ifx -O3 -ip -fp-model precise
  C compiler            : /opt/intel/oneapi/mpi/2021.12/bin/mpiicc (IntelLLVM) version 2024.1.0
  C compiler flags      : -cc=icx -O3 -ip -fp-model precise -std=gnu99
  C++ compiler          : /opt/intel/oneapi/mpi/2021.12/bin/mpiicpc (IntelLLVM) version 2024.1.0
  C++ compiler flags    : -cxx=icpx -O3 -ip -fp-model precise -std=c++11
  HIP compiler          :
  HIP compiler flags    :
  HIP GPU arch          :
  Using MPI
  Using ScaLAPACK
  Using LibXC
  Using i-PI
  Using RLSY
  Linking against: /opt/intel/oneapi/mkl/2024.1/lib/intel64/libmkl_intel_lp64.so
                   /opt/intel/oneapi/mkl/2024.1/lib/intel64/libmkl_sequential.so
                   /opt/intel/oneapi/mkl/2024.1/lib/intel64/libmkl_core.so
                   /opt/intel/oneapi/mkl/2024.1/lib/intel64/libmkl_blacs_intelmpi_lp64.so
                   /opt/intel/oneapi/mkl/2024.1/lib/intel64/libmkl_scalapack_lp64.so
                   /opt/intel/oneapi/mkl/2024.1/lib/intel64/libmkl_core.so

  Using       64 parallel tasks.
  Task        0 on host RSL-arvutus reporting.
  Task        1 on host RSL-arvutus reporting.
  Task        2 on host RSL-arvutus reporting.
  Task        3 on host RSL-arvutus reporting.
  Task        4 on host RSL-arvutus reporting.
  Task        5 on host RSL-arvutus reporting.
  Task        6 on host RSL-arvutus reporting.
  Task        7 on host RSL-arvutus reporting.
  Task        8 on host RSL-arvutus reporting.
  Task        9 on host RSL-arvutus reporting.
  Task       10 on host RSL-arvutus reporting.
  Task       11 on host RSL-arvutus reporting.
  Task       12 on host RSL-arvutus reporting.
  Task       13 on host RSL-arvutus reporting.
  Task       14 on host RSL-arvutus reporting.
  Task       15 on host RSL-arvutus reporting.
  Task       16 on host RSL-arvutus reporting.
  Task       17 on host RSL-arvutus reporting.
  Task       18 on host RSL-arvutus reporting.
  Task       19 on host RSL-arvutus reporting.
  Task       20 on host RSL-arvutus reporting.
  Task       21 on host RSL-arvutus reporting.
  Task       22 on host RSL-arvutus reporting.
  Task       23 on host RSL-arvutus reporting.
  Task       24 on host RSL-arvutus reporting.
  Task       25 on host RSL-arvutus reporting.
  Task       26 on host RSL-arvutus reporting.
  Task       27 on host RSL-arvutus reporting.
  Task       28 on host RSL-arvutus reporting.
  Task       29 on host RSL-arvutus reporting.
  Task       30 on host RSL-arvutus reporting.
  Task       31 on host RSL-arvutus reporting.
  Task       32 on host RSL-arvutus reporting.
  Task       33 on host RSL-arvutus reporting.
  Task       34 on host RSL-arvutus reporting.
  Task       35 on host RSL-arvutus reporting.
  Task       36 on host RSL-arvutus reporting.
  Task       37 on host RSL-arvutus reporting.
  Task       38 on host RSL-arvutus reporting.
  Task       39 on host RSL-arvutus reporting.
  Task       40 on host RSL-arvutus reporting.
  Task       41 on host RSL-arvutus reporting.
  Task       42 on host RSL-arvutus reporting.
  Task       43 on host RSL-arvutus reporting.
  Task       44 on host RSL-arvutus reporting.
  Task       45 on host RSL-arvutus reporting.
  Task       46 on host RSL-arvutus reporting.
  Task       47 on host RSL-arvutus reporting.
  Task       48 on host RSL-arvutus reporting.
  Task       49 on host RSL-arvutus reporting.
  Task       50 on host RSL-arvutus reporting.
  Task       51 on host RSL-arvutus reporting.
  Task       52 on host RSL-arvutus reporting.
  Task       53 on host RSL-arvutus reporting.
  Task       54 on host RSL-arvutus reporting.
  Task       55 on host RSL-arvutus reporting.
  Task       56 on host RSL-arvutus reporting.
  Task       57 on host RSL-arvutus reporting.
  Task       58 on host RSL-arvutus reporting.
  Task       59 on host RSL-arvutus reporting.
  Task       60 on host RSL-arvutus reporting.
  Task       61 on host RSL-arvutus reporting.
  Task       62 on host RSL-arvutus reporting.
  Task       63 on host RSL-arvutus reporting.

  Memory overcommitment is allowed on your operating system.

  Obtaining array dimensions for all initial allocations:
  
  -----------------------------------------------------------------------
  Parsing control.in (first pass over file, find array dimensions only).
  The contents of control.in will be repeated verbatim below
  unless switched off by setting 'verbatim_writeout .false.' .
  in the first line of control.in .
  -----------------------------------------------------------------------
  
    xc              pbe
    relativistic    zora scalar 1.0e-12
    k_grid          8 8 1
  
    spin            collinear
    default_initial_moment        0.0
  
    charge	  1.0
    output          Mulliken
  
  
  ################################################################################
  #
  #  FHI-aims code project
  #  VB, Fritz-Haber Institut, 2009
  #
  #  Suggested "light" defaults for Ti atom (to be pasted into control.in file)
  #  Be sure to double-check any results obtained with these settings for post-processing,
  #  e.g., with the "tight" defaults and larger basis sets.
  #
  ################################################################################
    species        Ti
  #     global species definitions
      nucleus             22
      mass                47.867
  #
      l_hartree           4
  #
      cut_pot             3.5          1.5  1.0
      basis_dep_cutoff    1e-4
  #
      radial_base         48 5.0
      radial_multiplier   1
      angular_grids       specified
        division   0.5171   50
        division   0.9824  110
        division   1.2917  194
        division   1.4940  302
  #      division   1.6934  434
  #      division   1.8425  590
  #      division   2.1901  770
  #      division   2.2896  974
  #      division   2.8244 1202
  #      outer_grid  974
        outer_grid  302
  ################################################################################
  #
  #  Definition of "minimal" basis
  #
  ################################################################################
  #     valence basis states
      valence      4  s   2.
      valence      3  p   6.
      valence      3  d   2.
  #     ion occupancy
      ion_occ      4  s   1.
      ion_occ      3  p   6.
      ion_occ      3  d   1.
  ################################################################################
  #
  #  Suggested additional basis functions. For production calculations,
  #  uncomment them one after another (the most important basis functions are
  #  listed first).
  #
  #  Constructed for dimers: 1.6 A, 1.85 A, 2.5 A, 3.25 A, 4.25 A
  #
  ################################################################################
  #  "First tier" - improvements: -396.25 meV to -19.41 meV
       hydro 4 f 8
       hydro 3 d 2.7
       ionic 4 p auto
  #     hydro 5 g 11.6
       ionic 4 s auto
  #  "Second tier" - improvements: -16.30 meV to -2.03 meV
  #     hydro 3 d 4.4
  #     hydro 6 h 16
  #     hydro 4 f 9.4
  #     hydro 4 p 4.5
  #     hydro 1 s 0.5
  #  "Third tier" - improvements: -6.28 meV to -0.37 meV
  #     hydro 4 d 6.4
  #     hydro 4 f 10
  #     hydro 5 g 12
  #     hydro 2 p 1.7
  #     hydro 6 h 16.4
  #     hydro 4 s 3.8
  #  Further basis functions: -0.45 meV and smaller improvements
  #     hydro 3 d 8.8
  #     hydro 5 p 18
  #     hydro 4 f 22.4
  #     hydro 5 f 7.2  # -0.16 meV
  #     hydro 3 d 2.1  # -0.11 meV
  #     hydro 5 g 7.4  # -0.09 meV
  
  
  ################################################################################
  #
  #  FHI-aims code project
  #  VB, Fritz-Haber Institut, 2009
  #
  #  Suggested "light" defaults for O atom (to be pasted into control.in file)
  #  Be sure to double-check any results obtained with these settings for post-processing,
  #  e.g., with the "tight" defaults and larger basis sets.
  #
  ################################################################################
    species        O
  #     global species definitions
      nucleus             8
      mass                15.9994
  #
      l_hartree           4
  #
      cut_pot             3.5  1.5  1.0
      basis_dep_cutoff    1e-4
  #
      radial_base         36 5.0
      radial_multiplier   1
       angular_grids specified
        division   0.2659   50
        division   0.4451  110
        division   0.6052  194
        division   0.7543  302
  #      division   0.8014  434
  #      division   0.8507  590
  #      division   0.8762  770
  #      division   0.9023  974
  #      division   1.2339 1202
  #      outer_grid 974
        outer_grid 302
  ################################################################################
  #
  #  Definition of "minimal" basis
  #
  ################################################################################
  #     valence basis states
      valence      2  s   2.
      valence      2  p   4.
  #     ion occupancy
      ion_occ      2  s   1.
      ion_occ      2  p   3.
  ################################################################################
  #
  #  Suggested additional basis functions. For production calculations,
  #  uncomment them one after another (the most important basis functions are
  #  listed first).
  #
  #  Constructed for dimers: 1.0 A, 1.208 A, 1.5 A, 2.0 A, 3.0 A
  #
  ################################################################################
  #  "First tier" - improvements: -699.05 meV to -159.38 meV
       hydro 2 p 1.8
       hydro 3 d 7.6
       hydro 3 s 6.4
  #  "Second tier" - improvements: -49.91 meV to -5.39 meV
  #     hydro 4 f 11.6
  #     hydro 3 p 6.2
  #     hydro 3 d 5.6
  #     hydro 5 g 17.6
  #     hydro 1 s 0.75
  #  "Third tier" - improvements: -2.83 meV to -0.50 meV
  #     ionic 2 p auto
  #     hydro 4 f 10.8
  #     hydro 4 d 4.7
  #     hydro 2 s 6.8
  #  "Fourth tier" - improvements: -0.40 meV to -0.12 meV
  #     hydro 3 p 5
  #     hydro 3 s 3.3
  #     hydro 5 g 15.6
  #     hydro 4 f 17.6
  #     hydro 4 d 14
  # Further basis functions - -0.08 meV and below
  #     hydro 3 s 2.1
  #     hydro 4 d 11.6
  #     hydro 3 p 16
  #     hydro 2 s 17.2
  ################################################################################
  #
  #  FHI-aims code project
  #  VB, Fritz-Haber Institut, 2009
  #
  #  Suggested "light" defaults for F atom (to be pasted into control.in file)
  #  Be sure to double-check any results obtained with these settings for post-processing,
  #  e.g., with the "tight" defaults and larger basis sets.
  #
  ################################################################################
    species        F
  #     global species definitions
      nucleus             9
      mass                18.9984032
  #
      l_hartree           4
  #
      cut_pot             3.5  1.5  1.0
      basis_dep_cutoff    1e-4
  #
      radial_base         37 5.0
      radial_multiplier   1
      angular_grids specified
        division   0.4014  110
        division   0.5291  194
        division   0.6019  302
  #      division   0.6814  434
  #      division   0.7989  590
  #      division   0.8965  770
  #      division   1.3427  974
  #      outer_grid   974
        outer_grid   302
  ################################################################################
  #
  #  Definition of "minimal" basis
  #
  ################################################################################
  #     valence basis states
      valence      2  s   2.
      valence      2  p   5.
  #     ion occupancy
      ion_occ      2  s   1.
      ion_occ      2  p   4.
  ################################################################################
  #
  #  Suggested additional basis functions. For production calculations,
  #  uncomment them one after another (the most important basis functions are
  #  listed first).
  #
  #  Constructed for dimers: 1.2 A, 1.418 A, 1.75 A, 2.25 A, 3.25 A
  #
  ################################################################################
  #  "First tier" - improvements: -149.44 meV to -45.88 meV
       hydro 2 p 1.7
       hydro 3 d 7.4
       hydro 3 s 6.8
  #  "Second tier" - improvements: -12.96 meV to -1.56 meV
  #     hydro 4 f 11.2
  #     ionic 2 p auto
  #     hydro 1 s 0.75
  #     hydro 4 d 8.8
  #     hydro 5 g 16.8
  #  "Third tier" - improvements: -0.58 meV to -0.05 meV
  #     hydro 3 p 6.2
  #     hydro 3 s 3.2
  #     hydro 4 f 9.6
  #     hydro 3 s 19.6
  #     hydro 4 d 8.6
  #     hydro 5 g 14.4
  # Further basis functions: -0.05 meV and below
  #     hydro 3 p 4.2
  
  -----------------------------------------------------------------------
  Completed first pass over input file control.in .
  -----------------------------------------------------------------------
  
  
  -----------------------------------------------------------------------
  Parsing geometry.in (first pass over file, find array dimensions only).
  The contents of geometry.in will be repeated verbatim below
  unless switched off by setting 'verbatim_writeout .false.' .
  in the first line of geometry.in .
  -----------------------------------------------------------------------
  
  lattice_vector 6.566127 0.000000 0.000000
  lattice_vector 0.000000 5.945766 0.000000
  lattice_vector 0.000000 0.000000 22.332457
  
  atom_frac 0.999994 0.000000 0.368597 O
  atom_frac 0.305556 0.250000 0.425767 O
  atom_frac 0.499997 0.000000 0.425768 Ti
  atom_frac 0.999997 0.250000 0.425768 Ti
  atom_frac 0.694439 0.250000 0.425769 O
  atom_frac 0.000001 0.000000 0.482939 O
  atom_frac 0.499991 0.000000 0.515613 O
  atom_frac 0.805553 0.250000 0.572783 O
  atom_frac 0.999995 0.000000 0.572784 Ti
  atom_frac 0.499995 0.250000 0.572784 Ti
  atom_frac 0.194436 0.250000 0.572786 O
  atom_frac 0.499998 0.000000 0.629955 O
  atom_frac 0.999994 0.500000 0.368597 O
  atom_frac 0.305556 0.750000 0.425767 O
  atom_frac 0.499997 0.500000 0.425768 Ti
  atom_frac 0.999997 0.750000 0.425768 Ti
  atom_frac 0.694439 0.750000 0.425769 O
  atom_frac 0.000001 0.500000 0.482939 O
  atom_frac 0.499991 0.500000 0.515613 F
  atom_frac 0.805553 0.750000 0.572783 O
  atom_frac 0.999995 0.500000 0.572784 Ti
  atom_frac 0.499995 0.750000 0.572784 Ti
  atom_frac 0.194436 0.750000 0.572786 O
  atom_frac 0.499998 0.500000 0.629955 O
  
  -----------------------------------------------------------------------
  Completed first pass over input file geometry.in .
  -----------------------------------------------------------------------
  

  Basic array size parameters:
  | Number of species                 :        3
  | Number of atoms                   :       24
  | Number of lattice vectors         :        3
  | Max. basis fn. angular momentum   :        3
  | Max. atomic/ionic basis occupied n:        4
  | Max. number of basis fn. types    :        3
  | Max. radial fns per species/type  :        7
  | Max. logarithmic grid size        :     1383
  | Max. radial integration grid size :       48
  | Max. angular integration grid size:      302
  | Max. angular grid division number :        8
  | Radial grid for Hartree potential :     1383
  | Number of spin channels           :        2

------------------------------------------------------------
          Reading file control.in.
------------------------------------------------------------
  XC: Using PBE gradient-corrected functionals.
  Scalar relativistic treatment of kinetic energy: ZORA.
  Threshold value for ZORA:   0.100000E-11
  Found k-point grid:         8         8         1
  Spin treatment: Spin density functional theory - collinear spins.
  Initial spin moment per atom:   0.0000
  Charged system requested: Charge =   0.100000E+01.
  Mulliken charge analysis will be performed and summarised to the main output.
  Full Mulliken charge analysis will be written to file 'Mulliken.out'.
 
  Reading configuration options for species Ti                  .
  | Found nuclear charge :  22.0000
  | Found atomic mass :    47.8670000000000      amu
  | Found l_max for Hartree potential  :   4
  | Found cutoff potl. onset [A], width [A], scale factor :    3.50000    1.50000    1.00000
  | Threshold for basis-dependent cutoff potential is   0.100000E-03
  | Found data for basic radial integration grid :    48 points, outermost radius =    5.000 A
  | Found multiplier for basic radial grid :   1
  | Found angular grid specification: user-specified.
  | Specified grid contains     5 separate shells.
  | Check grid settings after all constraints further below.
  | Found free-atom valence shell :  4 s   2.000
  | Found free-atom valence shell :  3 p   6.000
  | Found free-atom valence shell :  3 d   2.000
  | Found free-ion valence shell :  4 s   1.000
  | Found free-ion valence shell :  3 p   6.000
  | Found free-ion valence shell :  3 d   1.000
  | Found hydrogenic basis function :  4 f   8.000
  | Found hydrogenic basis function :  3 d   2.700
  | Found ionic basis function :  4 p , default cutoff radius.
  | Found ionic basis function :  4 s , default cutoff radius.
 | Encountered keyword species, ending the description of species Ti                  .
  Species Ti                  : Missing cutoff potential type.
  Defaulting to exp(1/x)/(1-x)^2 type cutoff potential.
  Species Ti: No 'logarithmic' tag. Using default grid for free atom:
  | Default logarithmic grid data [bohr] : 0.1000E-03 0.1000E+03 0.1012E+01
  | Will include ionic basis functions of  2.0-fold positive Ti                   ion.
  Species Ti: On-site basis accuracy parameter (for Gram-Schmidt orthonormalisation) not specified.
  Using default value basis_acc =  0.1000000E-03.
  Species Ti                  : Using default innermost maximum threshold i_radial=  2 for radial functions.
  Species Ti                  : Default cutoff onset for free atom density etc. : 0.35000000E+01 AA.
  Species Ti                  : Basic radial grid will be enhanced according to radial_multiplier =   1, to contain    48 grid points.
 
  Reading configuration options for species O                   .
  | Found nuclear charge :   8.0000
  | Found atomic mass :    15.9994000000000      amu
  | Found l_max for Hartree potential  :   4
  | Found cutoff potl. onset [A], width [A], scale factor :    3.50000    1.50000    1.00000
  | Threshold for basis-dependent cutoff potential is   0.100000E-03
  | Found data for basic radial integration grid :    36 points, outermost radius =    5.000 A
  | Found multiplier for basic radial grid :   1
  | Found angular grid specification: user-specified.
  | Specified grid contains     5 separate shells.
  | Check grid settings after all constraints further below.
  | Found free-atom valence shell :  2 s   2.000
  | Found free-atom valence shell :  2 p   4.000
  | Found free-ion valence shell :  2 s   1.000
  | Found free-ion valence shell :  2 p   3.000
  | Found hydrogenic basis function :  2 p   1.800
  | Found hydrogenic basis function :  3 d   7.600
  | Found hydrogenic basis function :  3 s   6.400
 | Encountered keyword species, ending the description of species O                   .
  Species O                   : Missing cutoff potential type.
  Defaulting to exp(1/x)/(1-x)^2 type cutoff potential.
  Species O : No 'logarithmic' tag. Using default grid for free atom:
  | Default logarithmic grid data [bohr] : 0.1000E-03 0.1000E+03 0.1012E+01
  Species O : On-site basis accuracy parameter (for Gram-Schmidt orthonormalisation) not specified.
  Using default value basis_acc =  0.1000000E-03.
  Species O                   : Using default innermost maximum threshold i_radial=  2 for radial functions.
  Species O                   : Default cutoff onset for free atom density etc. : 0.35000000E+01 AA.
  Species O                   : Basic radial grid will be enhanced according to radial_multiplier =   1, to contain    36 grid points.
 
  Reading configuration options for species F                   .
  | Found nuclear charge :   9.0000
  | Found atomic mass :    18.9984032000000      amu
  | Found l_max for Hartree potential  :   4
  | Found cutoff potl. onset [A], width [A], scale factor :    3.50000    1.50000    1.00000
  | Threshold for basis-dependent cutoff potential is   0.100000E-03
  | Found data for basic radial integration grid :    37 points, outermost radius =    5.000 A
  | Found multiplier for basic radial grid :   1
  | Found angular grid specification: user-specified.
  | Specified grid contains     4 separate shells.
  | Check grid settings after all constraints further below.
  | Found free-atom valence shell :  2 s   2.000
  | Found free-atom valence shell :  2 p   5.000
  | Found free-ion valence shell :  2 s   1.000
  | Found free-ion valence shell :  2 p   4.000
  | Found hydrogenic basis function :  2 p   1.700
  | Found hydrogenic basis function :  3 d   7.400
  | Found hydrogenic basis function :  3 s   6.800
  Species F                   : Missing cutoff potential type.
  Defaulting to exp(1/x)/(1-x)^2 type cutoff potential.
  Species F : No 'logarithmic' tag. Using default grid for free atom:
  | Default logarithmic grid data [bohr] : 0.1000E-03 0.1000E+03 0.1012E+01
  Species F : On-site basis accuracy parameter (for Gram-Schmidt orthonormalisation) not specified.
  Using default value basis_acc =  0.1000000E-03.
  Species F                   : Using default innermost maximum threshold i_radial=  2 for radial functions.
  Species F                   : Default cutoff onset for free atom density etc. : 0.35000000E+01 AA.
  Species F                   : Basic radial grid will be enhanced according to radial_multiplier =   1, to contain    37 grid points.
 
  Finished reading input file 'control.in'.
 
------------------------------------------------------------


------------------------------------------------------------
          Reading geometry description geometry.in.
------------------------------------------------------------
  | The smallest distance between any two atoms is         1.95947270 AA.
  | The first atom of this pair is atom number                      2 .
  | The second atom of this pair is atom number                     3 .
  | Wigner-Seitz cell of the first atom image           0     0     0 .
  | (The Wigner-Seitz cell of the second atom is 0 0 0  by definition.)

  Symmetry information by spglib:
  | Precision set to  0.1E-04
  | Number of Operations  : 2
  | Space group           : 6
  | International         : Pm
  | Schoenflies           : Cs^1
  Input structure read successfully.
  The structure contains       24 atoms,  and a total of        304.000 electrons.

  Input geometry:
  | Unit cell:
  |        6.56612700        0.00000000        0.00000000
  |        0.00000000        5.94576600        0.00000000
  |        0.00000000        0.00000000       22.33245700
  | Atomic structure:
  |       Atom                x [A]            y [A]            z [A]
  |    1: Species O             6.56608760        0.00000000        8.23167665
  |    2: Species O             2.00631950        1.48644150        9.50842322
  |    3: Species Ti            3.28304380        0.00000000        9.50844555
  |    4: Species Ti            6.56610730        1.48644150        9.50844555
  |    5: Species O             4.55977467        1.48644150        9.50846788
  |    6: Species O             0.00000657        0.00000000       10.78521445
  |    7: Species O             3.28300440        0.00000000       11.51490515
  |    8: Species O             5.28936330        1.48644150       12.79165172
  |    9: Species Ti            6.56609417        0.00000000       12.79167405
  |   10: Species Ti            3.28303067        1.48644150       12.79167405
  |   11: Species O             1.27669147        1.48644150       12.79171872
  |   12: Species O             3.28305037        0.00000000       14.06844295
  |   13: Species O             6.56608760        2.97288300        8.23167665
  |   14: Species O             2.00631950        4.45932450        9.50842322
  |   15: Species Ti            3.28304380        2.97288300        9.50844555
  |   16: Species Ti            6.56610730        4.45932450        9.50844555
  |   17: Species O             4.55977467        4.45932450        9.50846788
  |   18: Species O             0.00000657        2.97288300       10.78521445
  |   19: Species F             3.28300440        2.97288300       11.51490515
  |   20: Species O             5.28936330        4.45932450       12.79165172
  |   21: Species Ti            6.56609417        2.97288300       12.79167405
  |   22: Species Ti            3.28303067        4.45932450       12.79167405
  |   23: Species O             1.27669147        4.45932450       12.79171872
  |   24: Species O             3.28305037        2.97288300       14.06844295

  Lattice parameters for 3D lattice (in Angstroms) :     6.566127    5.945766   22.332457
  Angle(s) between unit vectors (in degrees)       :    90.000000   90.000000   90.000000


  Quantities derived from the lattice vectors (in Angstrom^-1):
  | Reciprocal lattice vector 1:  0.956909  0.000000  0.000000
  | Reciprocal lattice vector 2:  0.000000  1.056750  0.000000
  | Reciprocal lattice vector 3:  0.000000  0.000000  0.281348
  | Unit cell volume                               :   0.871874E+03  Angstrom^3

  Fractional coordinates:
                         L1                L2                L3
       atom_frac         0.99999400        0.00000000        0.36859700  O
       atom_frac         0.30555600        0.25000000        0.42576700  O
       atom_frac         0.49999700        0.00000000        0.42576800  Ti
       atom_frac         0.99999700        0.25000000        0.42576800  Ti
       atom_frac         0.69443900        0.25000000        0.42576900  O
       atom_frac         0.00000100        0.00000000        0.48293900  O
       atom_frac         0.49999100        0.00000000        0.51561300  O
       atom_frac         0.80555300        0.25000000        0.57278300  O
       atom_frac         0.99999500        0.00000000        0.57278400  Ti
       atom_frac         0.49999500        0.25000000        0.57278400  Ti
       atom_frac         0.19443600        0.25000000        0.57278600  O
       atom_frac         0.49999800        0.00000000        0.62995500  O
       atom_frac         0.99999400        0.50000000        0.36859700  O
       atom_frac         0.30555600        0.75000000        0.42576700  O
       atom_frac         0.49999700        0.50000000        0.42576800  Ti
       atom_frac         0.99999700        0.75000000        0.42576800  Ti
       atom_frac         0.69443900        0.75000000        0.42576900  O
       atom_frac         0.00000100        0.50000000        0.48293900  O
       atom_frac         0.49999100        0.50000000        0.51561300  F
       atom_frac         0.80555300        0.75000000        0.57278300  O
       atom_frac         0.99999500        0.50000000        0.57278400  Ti
       atom_frac         0.49999500        0.75000000        0.57278400  Ti
       atom_frac         0.19443600        0.75000000        0.57278600  O
       atom_frac         0.49999800        0.50000000        0.62995500  O

  Initial moments and charges:
  |  Atom   Moment         Charge        Species
  |     1   0.000000E+00   0.000000E+00   O
  |     2   0.000000E+00   0.000000E+00   O
  |     3   0.000000E+00   0.000000E+00   Ti
  |     4   0.000000E+00   0.000000E+00   Ti
  |     5   0.000000E+00   0.000000E+00   O
  |     6   0.000000E+00   0.000000E+00   O
  |     7   0.000000E+00   0.000000E+00   O
  |     8   0.000000E+00   0.000000E+00   O
  |     9   0.000000E+00   0.000000E+00   Ti
  |    10   0.000000E+00   0.000000E+00   Ti
  |    11   0.000000E+00   0.000000E+00   O
  |    12   0.000000E+00   0.000000E+00   O
  |    13   0.000000E+00   0.000000E+00   O
  |    14   0.000000E+00   0.000000E+00   O
  |    15   0.000000E+00   0.000000E+00   Ti
  |    16   0.000000E+00   0.000000E+00   Ti
  |    17   0.000000E+00   0.000000E+00   O
  |    18   0.000000E+00   0.000000E+00   O
  |    19   0.000000E+00   0.000000E+00   F
  |    20   0.000000E+00   0.000000E+00   O
  |    21   0.000000E+00   0.000000E+00   Ti
  |    22   0.000000E+00   0.000000E+00   Ti
  |    23   0.000000E+00   0.000000E+00   O
  |    24   0.000000E+00   0.000000E+00   O

  Slab Identifier: This is Z-oriented slab and maximum thickness of the vacuum is: 16.496 Angstrom.
 
  Finished reading input file 'geometry.in'.
 

 
  Consistency checks for stacksize environment parameter are next.
 
  | Maximum stacksize for task 0: unlimited
  | Maximum stacksize for task 1: unlimited
  | Maximum stacksize for task 2: unlimited
  | Maximum stacksize for task 3: unlimited
  | Maximum stacksize for task 4: unlimited
  | Maximum stacksize for task 5: unlimited
  | Maximum stacksize for task 6: unlimited
  | Maximum stacksize for task 7: unlimited
  | Maximum stacksize for task 8: unlimited
  | Maximum stacksize for task 9: unlimited
  | Maximum stacksize for task 10: unlimited
  | Maximum stacksize for task 11: unlimited
  | Maximum stacksize for task 12: unlimited
  | Maximum stacksize for task 13: unlimited
  | Maximum stacksize for task 14: unlimited
  | Maximum stacksize for task 15: unlimited
  | Maximum stacksize for task 16: unlimited
  | Maximum stacksize for task 17: unlimited
  | Maximum stacksize for task 18: unlimited
  | Maximum stacksize for task 19: unlimited
  | Maximum stacksize for task 20: unlimited
  | Maximum stacksize for task 21: unlimited
  | Maximum stacksize for task 22: unlimited
  | Maximum stacksize for task 23: unlimited
  | Maximum stacksize for task 24: unlimited
  | Maximum stacksize for task 25: unlimited
  | Maximum stacksize for task 26: unlimited
  | Maximum stacksize for task 27: unlimited
  | Maximum stacksize for task 28: unlimited
  | Maximum stacksize for task 29: unlimited
  | Maximum stacksize for task 30: unlimited
  | Maximum stacksize for task 31: unlimited
  | Maximum stacksize for task 32: unlimited
  | Maximum stacksize for task 33: unlimited
  | Maximum stacksize for task 34: unlimited
  | Maximum stacksize for task 35: unlimited
  | Maximum stacksize for task 36: unlimited
  | Maximum stacksize for task 37: unlimited
  | Maximum stacksize for task 38: unlimited
  | Maximum stacksize for task 39: unlimited
  | Maximum stacksize for task 40: unlimited
  | Maximum stacksize for task 41: unlimited
  | Maximum stacksize for task 42: unlimited
  | Maximum stacksize for task 43: unlimited
  | Maximum stacksize for task 44: unlimited
  | Maximum stacksize for task 45: unlimited
  | Maximum stacksize for task 46: unlimited
  | Maximum stacksize for task 47: unlimited
  | Maximum stacksize for task 48: unlimited
  | Maximum stacksize for task 49: unlimited
  | Maximum stacksize for task 50: unlimited
  | Maximum stacksize for task 51: unlimited
  | Maximum stacksize for task 52: unlimited
  | Maximum stacksize for task 53: unlimited
  | Maximum stacksize for task 54: unlimited
  | Maximum stacksize for task 55: unlimited
  | Maximum stacksize for task 56: unlimited
  | Maximum stacksize for task 57: unlimited
  | Maximum stacksize for task 58: unlimited
  | Maximum stacksize for task 59: unlimited
  | Maximum stacksize for task 60: unlimited
  | Maximum stacksize for task 61: unlimited
  | Maximum stacksize for task 62: unlimited
  | Maximum stacksize for task 63: unlimited
  | Current stacksize for task 0: unlimited
  | Current stacksize for task 1: unlimited
  | Current stacksize for task 2: unlimited
  | Current stacksize for task 3: unlimited
  | Current stacksize for task 4: unlimited
  | Current stacksize for task 5: unlimited
  | Current stacksize for task 6: unlimited
  | Current stacksize for task 7: unlimited
  | Current stacksize for task 8: unlimited
  | Current stacksize for task 9: unlimited
  | Current stacksize for task 10: unlimited
  | Current stacksize for task 11: unlimited
  | Current stacksize for task 12: unlimited
  | Current stacksize for task 13: unlimited
  | Current stacksize for task 14: unlimited
  | Current stacksize for task 15: unlimited
  | Current stacksize for task 16: unlimited
  | Current stacksize for task 17: unlimited
  | Current stacksize for task 18: unlimited
  | Current stacksize for task 19: unlimited
  | Current stacksize for task 20: unlimited
  | Current stacksize for task 21: unlimited
  | Current stacksize for task 22: unlimited
  | Current stacksize for task 23: unlimited
  | Current stacksize for task 24: unlimited
  | Current stacksize for task 25: unlimited
  | Current stacksize for task 26: unlimited
  | Current stacksize for task 27: unlimited
  | Current stacksize for task 28: unlimited
  | Current stacksize for task 29: unlimited
  | Current stacksize for task 30: unlimited
  | Current stacksize for task 31: unlimited
  | Current stacksize for task 32: unlimited
  | Current stacksize for task 33: unlimited
  | Current stacksize for task 34: unlimited
  | Current stacksize for task 35: unlimited
  | Current stacksize for task 36: unlimited
  | Current stacksize for task 37: unlimited
  | Current stacksize for task 38: unlimited
  | Current stacksize for task 39: unlimited
  | Current stacksize for task 40: unlimited
  | Current stacksize for task 41: unlimited
  | Current stacksize for task 42: unlimited
  | Current stacksize for task 43: unlimited
  | Current stacksize for task 44: unlimited
  | Current stacksize for task 45: unlimited
  | Current stacksize for task 46: unlimited
  | Current stacksize for task 47: unlimited
  | Current stacksize for task 48: unlimited
  | Current stacksize for task 49: unlimited
  | Current stacksize for task 50: unlimited
  | Current stacksize for task 51: unlimited
  | Current stacksize for task 52: unlimited
  | Current stacksize for task 53: unlimited
  | Current stacksize for task 54: unlimited
  | Current stacksize for task 55: unlimited
  | Current stacksize for task 56: unlimited
  | Current stacksize for task 57: unlimited
  | Current stacksize for task 58: unlimited
  | Current stacksize for task 59: unlimited
  | Current stacksize for task 60: unlimited
  | Current stacksize for task 61: unlimited
  | Current stacksize for task 62: unlimited
  | Current stacksize for task 63: unlimited
 
  Consistency checks for the contents of control.in are next.
 
  MPI_IN_PLACE appears to work with this MPI implementation.
  | Keeping use_mpi_in_place .true. (see manual).
  Target number of points in a grid batch is not set. Defaulting to  100
  Method for grid partitioning is not set. Defaulting to parallel hash+maxmin partitioning.
  Batch size limit is not set. Defaulting to    200
  By default, will store active basis functions for each batch.
  If in need of memory, prune_basis_once .false. can be used to disable this option.
  communication_type for Hartree potential was not specified.
  Defaulting to calc_hartree .
  Defaulting to Pulay charge density mixer.
  Pulay mixer: Number of relevant iterations not set.
  Defaulting to    8 iterations.
  Pulay mixer: Number of initial linear mixing iterations not set.
  Defaulting to    0 iterations.
  Work space size for distributed Hartree potential not set.
  Defaulting to   0.200000E+03 MB.
  Mixing parameter for charge density mixing has not been set.
  Using default: charge_mix_param =     0.0500.
  The mixing parameter will be adjusted in iteration number     2 of each s.c.f. cycle (i.e., each geometry step).
  Mixing parameter for spin density mixing has not been set.
  Using charge_mix_param as default:     0.0500.
  Algorithm-dependent basis array size parameters:
  | n_max_pulay                         :        8
  Maximum number of self-consistency iterations not provided.
  Presetting  1000 iterations.
  Presetting      1001 iterations before the initial mixing cycle
  is restarted anyway using the sc_init_iter criterion / keyword.
  Presetting a factor      1.000 between actual scf density residual
  and density convergence criterion sc_accuracy_rho below which sc_init_iter
  takes no effect.
 * No s.c.f. convergence criteria (sc_accuracy_*) were provided in control.in.
 * The run will proceed with a reasonable default guess, but please check whether.
 * the s.c.f. cycles seem to take too much or too little time.
  Calculation of forces was not defined in control.in. No forces will be calculated.
  Geometry relaxation not requested: no relaxation will be performed.
 * Notice: The s.c.f. convergence criterion sc_accuracy_rho was not provided.
 * We used to stop in this case, and ask the user to provide reasonable
 * scf convergence criteria. However, this led some users to employ criteria
 * that led to extremely long run times, e.g., for simple relaxation.
 * We now preset a default value for sc_accuracy_rho if it is not set.
 * You may still wish to check if this setting is too tight or too loose for your needs.
 * Based on n_atoms and forces and force-correction status, FHI-aims chose sc_accuracy_rho =  0.200000E-05 .
  No accuracy limit for integral partition fn. given. Defaulting to  0.1000E-14.
  No threshold value for u(r) in integrations given. Defaulting to  0.1000E-05.
  No occupation type (smearing scheme) given. Defaulting to Gaussian broadening, width =  0.1000E-01 eV.
  The width will be adjusted in iteration number     2 of each s.c.f. cycle (i.e., each geometry step).
  No accuracy for occupation numbers given. Defaulting to  0.1000E-12.
  No threshold value for occupation numbers given. Defaulting to  0.0000E+00.
  No accuracy for fermi level given. Defaulting to  0.1000E-19.
  Maximum # of iterations to find E_F not set. Defaulting to  200.
  Preferred method for the eigenvalue solver ('KS_method') not specified in 'control.in'.
  Defaulting to serial version, LAPACK (via ELSI), since more k-points than CPUs available.
  Will not use alltoall communication since running on < 1024 CPUs.
  Threshold for basis singularities not set.
  Default threshold for basis singularities:  0.1000E-04
  partition_type (choice of integration weights) for integrals was not specified.
  | Using a version of the partition function of Stratmann and coworkers ('stratmann_sparse').
  | At each grid point, the set of atoms used to build the partition table is smoothly restricted to
  | only those atoms whose free-atom density would be non-zero at that grid point.
  Partitioning for Hartree potential was not defined. Using partition_type for integrals.
  | Adjusted default value of keyword multip_moments_threshold to:       0.10000000E-11
  | This value may affect high angular momentum components of the Hartree potential in periodic systems.
  Angular momentum expansion for Kerker preconditioner not set explicitly.
  | Using default value of   0
  No explicit requirement for turning off preconditioner.
  | By default, it will be turned off when the charge convergence reaches
  | sc_accuracy_rho  =   0.200000E-05
  No special mixing parameter while Kerker preconditioner is on.
  Using default: charge_mix_param =     0.0500.
  No q(lm)/r^(l+1) cutoff set for long-range Hartree potential.
  | Using default value of  0.100000E-09 .
  | Verify using the multipole_threshold keyword.
  Defaulting to new monopole extrapolation.
  Density update method: automatic selection selected.
  Using density matrix based charge density update.
  Using density matrix based charge density update.
  Using packed matrix style: index .
  Defaulting to use time-reversal symmetry for k-point grid.
  Charge integration errors on the 3D integration grid will be compensated
  by explicit normalization and distribution of residual charges.
  Use the "compensate_multipole_errors" flag to change this behaviour.
  Set 'collect_eigenvectors' to be '.true.' for all serial calculations. This is mandatory.
  Set 'collect_eigenvectors' to be '.true.' for KS_method lapack_fast and serial.
  Found potential conflicts with setting 'use_local_index' for this calculation. Will not set it.
 
  Consistency checks for the contents of geometry.in are next.
 

  Range separation radius for Ewald summation (hartree_convergence_parameter):      4.81466675 bohr.
 * Warning: Initial charge and total charge of the system are inconsistent.
 * Selected charge in control.in:     1.0000* Sum of initial charges in geometry.in:     0.0000
  Number of empty states per atom not set in control.in - providing a guess from actual geometry.
  | Total number of empty states used during s.c.f. cycle:       92
  If you use a very high smearing, use empty_states (per atom!) in control.in to increase this value.

  Structure-dependent array size parameters: 
  | Number of distinct atom types in initial rho :        3
  | Maximum number of distinct radial functions  :       23
  | Maximum number of basis functions            :      472
  | Number of Kohn-Sham states (occupied + empty):      244
------------------------------------------------------------
  After read_input_data [GB]:    769.54

  Performing system and environment tests:
  *** Environment variable OMP_NUM_THREADS is not set
  *** For performance reasons you might want to set it to 1
  | Checking for ScaLAPACK...
  | Testing pdtran()...
  | All pdtran() tests passed.
  After prepare_system [GB]:    769.31

------------------------------------------------------------
          Preparing all fixed parts of the calculation.
------------------------------------------------------------
  Determining machine precision:
    2.225073858507201E-308
  Setting up grids for atomic and cluster calculations.

  Creating wave function, potential, and density for free atoms.
  Runtime choices for atomic solver:
  | atomic solver xc        : PBE
  | compute density gradient: 1
  | compute kinetic density : F

  Species: Ti

  List of occupied orbitals and eigenvalues:
    n    l              occ      energy [Ha]    energy [eV]
    1    0           2.0000      -179.959082     -4896.9358
    2    0           2.0000       -19.727662      -536.8170
    3    0           2.0000        -2.283029       -62.1244
    4    0           2.0000        -0.148384        -4.0377
    2    1           6.0000       -16.317278      -444.0157
    3    1           6.0000        -1.409348       -38.3503
    3    2           2.0000        -0.139340        -3.7916


  Species: O

  List of occupied orbitals and eigenvalues:
    n    l              occ      energy [Ha]    energy [eV]
    1    0           2.0000       -18.926989      -515.0296
    2    0           2.0000        -0.880247       -23.9527
    2    1           4.0000        -0.331514        -9.0210


  Species: F

  List of occupied orbitals and eigenvalues:
    n    l              occ      energy [Ha]    energy [eV]
    1    0           2.0000       -24.399611      -663.9472
    2    0           2.0000        -1.098702       -29.8972
    2    1           5.0000        -0.408210       -11.1080

  Spin-polarized or charged system:
  Charge density initialized according to selected moments and charges.

  Creating spin-polarized density from free atoms.

  Species: O
  Charge:   0.000000
  Moment:   0.000000

  List of occupied orbitals and eigenvalues:
    n    l      energy [Ha]    energy [eV]    occupation
  Spin-up
    1    0       -18.926989      -515.0296     1.00000000
    2    0        -0.880247       -23.9527     1.00000000
    2    1        -0.331514        -9.0210     2.00000000
  Spin-down
    1    0       -18.926989      -515.0296     1.00000000
    2    0        -0.880247       -23.9527     1.00000000
    2    1        -0.331514        -9.0210     2.00000000


  Species: Ti
  Charge:   0.000000
  Moment:   0.000000

  List of occupied orbitals and eigenvalues:
    n    l      energy [Ha]    energy [eV]    occupation
  Spin-up
    1    0      -179.959082     -4896.9358     1.00000000
    2    0       -19.727662      -536.8170     1.00000000
    3    0        -2.283029       -62.1244     1.00000000
    4    0        -0.148384        -4.0377     1.00000000
    2    1       -16.317278      -444.0157     3.00000000
    3    1        -1.409348       -38.3503     3.00000000
    3    2        -0.139340        -3.7916     1.00000000
  Spin-down
    1    0      -179.959082     -4896.9358     1.00000000
    2    0       -19.727662      -536.8170     1.00000000
    3    0        -2.283029       -62.1244     1.00000000
    4    0        -0.148384        -4.0377     1.00000000
    2    1       -16.317278      -444.0157     3.00000000
    3    1        -1.409348       -38.3503     3.00000000
    3    2        -0.139340        -3.7916     1.00000000


  Species: F
  Charge:   0.000000
  Moment:   0.000000

  List of occupied orbitals and eigenvalues:
    n    l      energy [Ha]    energy [eV]    occupation
  Spin-up
    1    0       -24.399611      -663.9472     1.00000000
    2    0        -1.098702       -29.8972     1.00000000
    2    1        -0.408210       -11.1080     2.50000000
  Spin-down
    1    0       -24.399611      -663.9472     1.00000000
    2    0        -1.098702       -29.8972     1.00000000
    2    1        -0.408210       -11.1080     2.50000000


  Adding cutoff potential to free-atom effective potential.
  Creating fixed part of basis set: Ionic, confined, hydrogenic.
 
  Ti                   ion:

  List of free ionic orbitals and eigenvalues:
    n    l      energy [Ha]    energy [eV]
    1    0      -180.819616     -4920.3521
    2    0       -20.608761      -560.7929
    3    0        -3.115729       -84.7833
    4    0        -0.697188       -18.9715
    2    1       -17.196209      -467.9327
    3    1        -2.231296       -60.7167
    3    2        -0.911363       -24.7995


  List of ionic basis orbitals and eigenvalues:
    n    l      energy [Ha]    energy [eV]    outer radius [A]
    4    1        -0.517739       -14.0884       4.592117
    4    0        -0.696824       -18.9615       4.536321

 
  Ti                   hydrogenic:
 
  List of hydrogenic basis orbitals: 
    n    l      effective z      eigenvalue [eV]  inner max. [A]     outer max. [A]     outer radius [A]   
    4    3         8.000000       -54.4222           1.059019           1.059019           4.267343
    3    2         2.700000       -10.7798           1.726925           1.726925           4.592117
 
 
  O                    hydrogenic:
 
  List of hydrogenic basis orbitals: 
    n    l      effective z      eigenvalue [eV]  inner max. [A]     outer max. [A]     outer radius [A]   
    2    1         1.800000       -10.9749           1.164242           1.164242           4.578029
    3    2         7.600000       -87.3180           0.624125           0.624125           3.251020
    3    0         6.400000       -61.9207           0.061167           1.081902           4.001998
 
 
  F                    hydrogenic:
 
  List of hydrogenic basis orbitals: 
    n    l      effective z      eigenvalue [eV]  inner max. [A]     outer max. [A]     outer radius [A]   
    2    1         1.700000        -9.7616           1.243167           1.243167           4.598524
    3    2         7.400000       -82.7828           0.642437           0.642437           3.305741
    3    0         6.800000       -69.9026           0.057798           1.022307           3.781556
 
  Creating atomic-like basis functions for current effective potential.

  Species Ti                  :

  List of atomic basis orbitals and eigenvalues:
    n    l      energy [Ha]    energy [eV]    outer radius [A]
    1    0      -179.959082     -4896.9358       0.490254
    2    0       -19.727662      -536.8170       1.491292
    3    0        -2.283029       -62.1244       4.014314
    4    0        -0.148384        -4.0377       4.592117
    2    1       -16.317278      -444.0157       1.585290
    3    1        -1.409348       -38.3503       4.267343
    3    2        -0.139340        -3.7916       4.536321


  Species O                   :

  List of atomic basis orbitals and eigenvalues:
    n    l      energy [Ha]    energy [eV]    outer radius [A]
    1    0       -18.926989      -515.0296       1.415765
    2    0        -0.880247       -23.9527       4.413171
    2    1        -0.331514        -9.0210       4.522403


  Species F                   :

  List of atomic basis orbitals and eigenvalues:
    n    l      energy [Ha]    energy [eV]    outer radius [A]
    1    0       -24.399611      -663.9472       1.258458
    2    0        -1.098702       -29.8972       4.325857
    2    1        -0.408210       -11.1080       4.487453

  Assembling full basis from fixed parts.
  | Species Ti :   atomic orbital   1 s accepted.
  | Species Ti :   atomic orbital   2 s accepted.
  | Species Ti :   atomic orbital   3 s accepted.
  | Species Ti :    ionic orbital   4 s accepted.
  | Species Ti :   atomic orbital   4 s accepted.
  | Species Ti :   atomic orbital   2 p accepted.
  | Species Ti :   atomic orbital   3 p accepted.
  | Species Ti :    ionic orbital   4 p accepted.
  | Species Ti :   atomic orbital   3 d accepted.
  | Species Ti :    hydro orbital   3 d accepted.
  | Species Ti :    hydro orbital   4 f accepted.
  | Species O :   atomic orbital   1 s accepted.
  | Species O :    hydro orbital   3 s accepted.
  | Species O :   atomic orbital   2 s accepted.
  | Species O :   atomic orbital   2 p accepted.
  | Species O :    hydro orbital   2 p accepted.
  | Species O :    hydro orbital   3 d accepted.
  | Species F :   atomic orbital   1 s accepted.
  | Species F :    hydro orbital   3 s accepted.
  | Species F :   atomic orbital   2 s accepted.
  | Species F :   atomic orbital   2 p accepted.
  | Species F :    hydro orbital   2 p accepted.
  | Species F :    hydro orbital   3 d accepted.
 
  Basis size parameters after reduction:
  | Total number of radial functions:       23
  | Total number of basis functions :      472
 
  Per-task memory consumption for arrays in subroutine allocate_ext:
  |           6.120712MB.
  Testing on-site integration grid accuracy.
  |  Species  Function  <phi|h_atom|phi> (log., in eV)  <phi|h_atom|phi> (rad., in eV)
           1        1              -4896.9357674450              -4896.9322838106
           1        2               -536.8170048508               -536.8169722776
           1        3                -62.1243896260                -62.1243889401
           1        4                 -3.2653235630                 -3.2692838824
           1        5                  6.7987747276                  6.5460721871 ***
           1        6               -444.0157161949               -444.0157165643
           1        7                -38.3503235548                -38.3503234985
           1        8                  0.2923930877                  0.2745948114
           1        9                 -3.7933400649                 -3.7959244171
           1       10                  6.3288803616                  6.2510614935 ***
           1       11                 27.8451455747                 27.8452636415
           2       12               -515.0295626295               -515.0294562869
           2       13                 15.1698434419                 15.1699322205
           2       14                -21.6038822678                -21.6039118108
           2       15                 -9.0211123393                 -9.0212703513
           2       16                  8.3047696391                  8.2854840999
           2       17                 45.8428042125                 45.8427461223
           3       18               -663.9471986398               -663.9470363156
           3       19                 16.8514011578                 16.8512525340
           3       20                -28.4490593856                -28.4490661455
           3       21                -11.1080115307                -11.1080620174
           3       22                  7.1940182175                  7.1685154136
           3       23                 44.8544281765                 44.8543763625
 * Note: Onsite integrals marked "***" above are less accurate than
 * onsite_accuracy_threshold =    0.03000 eV. Usually, this is harmless.
 * When in doubt, tighten the "radial" and/or "radial_multiplier" flags to check.

  Preparing densities etc. for the partition functions (integrals / Hartree potential).

  Preparations completed.
  max(cpu_time)          :      0.515 s.
  Wall clock time (cpu1) :      0.512 s.
------------------------------------------------------------
  After prepare_scf [GB]:    766.03

  Initializing index lists of integration centers etc. from given atomic structure:
  Mapping all atomic coordinates to central unit cell.

  Initializing the k-points
  Using symmetry for reducing the k-points
  | k-points reduced from:       64 to       34
  | Number of k-points                             :        34
  The eigenvectors in the calculations are COMPLEX.
  | K-points in task   0:         0
  | K-points in task   1:         1
  | K-points in task   2:         1
  | K-points in task   3:         1
  | K-points in task   4:         1
  | K-points in task   5:         1
  | K-points in task   6:         1
  | K-points in task   7:         1
  | K-points in task   8:         1
  | K-points in task   9:         1
  | K-points in task  10:         1
  | K-points in task  11:         1
  | K-points in task  12:         1
  | K-points in task  13:         1
  | K-points in task  14:         1
  | K-points in task  15:         1
  | K-points in task  16:         1
  | K-points in task  17:         1
  | K-points in task  18:         1
  | K-points in task  19:         1
  | K-points in task  20:         1
  | K-points in task  21:         1
  | K-points in task  22:         1
  | K-points in task  23:         1
  | K-points in task  24:         1
  | K-points in task  25:         1
  | K-points in task  26:         1
  | K-points in task  27:         1
  | K-points in task  28:         1
  | K-points in task  29:         1
  | K-points in task  30:         1
  | K-points in task  31:         1
  | K-points in task  32:         1
  | K-points in task  33:         1
  | K-points in task  34:         1
  | K-points in task  35:         0
  | K-points in task  36:         0
  | K-points in task  37:         0
  | K-points in task  38:         0
  | K-points in task  39:         0
  | K-points in task  40:         0
  | K-points in task  41:         0
  | K-points in task  42:         0
  | K-points in task  43:         0
  | K-points in task  44:         0
  | K-points in task  45:         0
  | K-points in task  46:         0
  | K-points in task  47:         0
  | K-points in task  48:         0
  | K-points in task  49:         0
  | K-points in task  50:         0
  | K-points in task  51:         0
  | K-points in task  52:         0
  | K-points in task  53:         0
  | K-points in task  54:         0
  | K-points in task  55:         0
  | K-points in task  56:         0
  | K-points in task  57:         0
  | K-points in task  58:         0
  | K-points in task  59:         0
  | K-points in task  60:         0
  | K-points in task  61:         0
  | K-points in task  62:         0
  | K-points in task  63:         0
  | Number of basis functions in the Hamiltonian integrals :      4888
  | Number of basis functions in a single unit cell        :       472
  | Number of centers in hartree potential         :      1430
  | Number of centers in hartree multipole         :       689
  | Number of centers in electron density summation:       552
  | Number of centers in basis integrals           :       576
  | Number of centers in integrals                 :       310
  | Number of centers in hamiltonian               :       558
  | Consuming         32 KiB for k_phase.
  | Number of super-cells (origin) [n_cells]                     :         405
  | Number of super-cells (after PM_index) [n_cells]             :          62
  | Number of super-cells in hamiltonian [n_cells_in_hamiltonian]:          62
  | Size of matrix packed + index [n_hamiltonian_matrix_size] :      558393
  After initialize_bc_dependent_lists [GB]:    766.03

------------------------------------------------------------
          Begin self-consistency loop: Initialization.

          Date     :  20250328, Time     :  010002.219
------------------------------------------------------------
  Available memory per node after initialize_hartree_non_periodic_ewald [GB]:    766.03
  | Estimated reciprocal-space cutoff momentum G_max:         1.91888898 bohr^-1 .
  | Reciprocal lattice points for long-range Hartree potential:     692
  Available memory per node after initialize_recip_hartree_potential [GB]:    766.03
  Available memory per node after initialize_scalapack [GB]:    766.03
  Available memory per node after aims_elsi_init_scf [GB]:    766.03
  Available memory per node after initialize_fixed_grids [GB]:    766.03
  Partitioning the integration grid into batches with parallel hashing+maxmin method.
  | Number of batches:     1789
  | Maximal batch size:     170
  | Minimal batch size:      53
  | Average batch size:      86.396
  | Standard deviation of batch sizes:      32.800

  Integration load balanced across    64 MPI tasks.
  Work distribution over tasks is as follows:
  Task     0 has       2406 integration points.
  Task     1 has       2416 integration points.
  Task     2 has       2417 integration points.
  Task     3 has       2419 integration points.
  Task     4 has       2431 integration points.
  Task     5 has       2402 integration points.
  Task     6 has       2423 integration points.
  Task     7 has       2405 integration points.
  Task     8 has       2414 integration points.
  Task     9 has       2412 integration points.
  Task    10 has       2409 integration points.
  Task    11 has       2404 integration points.
  Task    12 has       2406 integration points.
  Task    13 has       2393 integration points.
  Task    14 has       2411 integration points.
  Task    15 has       2406 integration points.
  Task    16 has       2398 integration points.
  Task    17 has       2408 integration points.
  Task    18 has       2413 integration points.
  Task    19 has       2413 integration points.
  Task    20 has       2392 integration points.
  Task    21 has       2426 integration points.
  Task    22 has       2423 integration points.
  Task    23 has       2415 integration points.
  Task    24 has       2424 integration points.
  Task    25 has       2391 integration points.
  Task    26 has       2439 integration points.
  Task    27 has       2440 integration points.
  Task    28 has       2461 integration points.
  Task    29 has       2417 integration points.
  Task    30 has       2427 integration points.
  Task    31 has       2399 integration points.
  Task    32 has       2401 integration points.
  Task    33 has       2398 integration points.
  Task    34 has       2401 integration points.
  Task    35 has       2414 integration points.
  Task    36 has       2407 integration points.
  Task    37 has       2396 integration points.
  Task    38 has       2448 integration points.
  Task    39 has       2418 integration points.
  Task    40 has       2395 integration points.
  Task    41 has       2409 integration points.
  Task    42 has       2419 integration points.
  Task    43 has       2398 integration points.
  Task    44 has       2418 integration points.
  Task    45 has       2404 integration points.
  Task    46 has       2414 integration points.
  Task    47 has       2409 integration points.
  Task    48 has       2460 integration points.
  Task    49 has       2425 integration points.
  Task    50 has       2408 integration points.
  Task    51 has       2464 integration points.
  Task    52 has       2394 integration points.
  Task    53 has       2430 integration points.
  Task    54 has       2432 integration points.
  Task    55 has       2416 integration points.
  Task    56 has       2405 integration points.
  Task    57 has       2423 integration points.
  Task    58 has       2437 integration points.
  Task    59 has       2386 integration points.
  Task    60 has       2411 integration points.
  Task    61 has       2454 integration points.
  Task    62 has       2401 integration points.
  Task    63 has       2407 integration points.
  Available memory per node after partition_grid [GB]:    766.03
  Initializing partition tables, free-atom densities, potentials, etc. across the integration grid (initialize_grid_storage).
  | initialize_grid_storage: Actual outermost partition radius vs. multipole_radius_free
  | (-- VB: in principle, multipole_radius_free should be larger, hence this output)
  | Species        1: Confinement radius =              4.999999999999999 AA, multipole_radius_free =              5.002391649902235 AA.
  | Species        1: outer_partition_radius set to              5.002391649902235 AA .
  | Species        2: Confinement radius =              4.999999999999999 AA, multipole_radius_free =              5.048384829883283 AA.
  | Species        2: outer_partition_radius set to              5.048384829883283 AA .
  | Species        3: Confinement radius =              4.999999999999999 AA, multipole_radius_free =              5.009370088163274 AA.
  | Species        3: outer_partition_radius set to              5.009370088163274 AA .
  | The sparse table of interatomic distances needs        846.03 kbyte instead of      2654.21 kbyte of memory.
  | Net number of integration points:   154562
  | of which are non-zero points    :   130009
  | Numerical average free-atom electrostatic potential    :     -5.19546080 eV
  Available memory per node after initialize_grid_storage_p1 [GB]:    766.03
  Renormalizing the initial density to the exact electron count on the 3D integration grid.
  | Initial density: Formal number of electrons (from input files) :     305.0000000000
  | Integrated number of electrons on 3D grid     :     304.9991466096
  | Charge integration error                      :      -0.0008533904
  | Normalization factor for density and gradient :       1.0000027980
  Renormalizing the free-atom superposition density to the exact electron count on the 3D integration grid.
  | Formal number of electrons (from input files) :     304.0000000000
  | Integrated number of electrons on 3D grid     :     304.9991466096
  | Charge integration error                      :      -0.0008533904
  | Normalization factor for density and gradient :       1.0000027980
  Obtaining max. number of non-zero basis functions in each batch (get_n_compute_maxes).
  | Maximal number of non-zero basis functions:      679 in task     0
  | Maximal number of non-zero basis functions:      713 in task     1
  | Maximal number of non-zero basis functions:      683 in task     2
  | Maximal number of non-zero basis functions:      711 in task     3
  | Maximal number of non-zero basis functions:      694 in task     4
  | Maximal number of non-zero basis functions:      718 in task     5
  | Maximal number of non-zero basis functions:      685 in task     6
  | Maximal number of non-zero basis functions:      706 in task     7
  | Maximal number of non-zero basis functions:      713 in task     8
  | Maximal number of non-zero basis functions:      697 in task     9
  | Maximal number of non-zero basis functions:      680 in task    10
  | Maximal number of non-zero basis functions:      678 in task    11
  | Maximal number of non-zero basis functions:      697 in task    12
  | Maximal number of non-zero basis functions:      666 in task    13
  | Maximal number of non-zero basis functions:      688 in task    14
  | Maximal number of non-zero basis functions:      706 in task    15
  | Maximal number of non-zero basis functions:      695 in task    16
  | Maximal number of non-zero basis functions:      692 in task    17
  | Maximal number of non-zero basis functions:      688 in task    18
  | Maximal number of non-zero basis functions:      664 in task    19
  | Maximal number of non-zero basis functions:      707 in task    20
  | Maximal number of non-zero basis functions:      675 in task    21
  | Maximal number of non-zero basis functions:      656 in task    22
  | Maximal number of non-zero basis functions:      695 in task    23
  | Maximal number of non-zero basis functions:      699 in task    24
  | Maximal number of non-zero basis functions:      712 in task    25
  | Maximal number of non-zero basis functions:      669 in task    26
  | Maximal number of non-zero basis functions:      675 in task    27
  | Maximal number of non-zero basis functions:      671 in task    28
  | Maximal number of non-zero basis functions:      684 in task    29
  | Maximal number of non-zero basis functions:      685 in task    30
  | Maximal number of non-zero basis functions:      648 in task    31
  | Maximal number of non-zero basis functions:      714 in task    32
  | Maximal number of non-zero basis functions:      678 in task    33
  | Maximal number of non-zero basis functions:      696 in task    34
  | Maximal number of non-zero basis functions:      699 in task    35
  | Maximal number of non-zero basis functions:      703 in task    36
  | Maximal number of non-zero basis functions:      700 in task    37
  | Maximal number of non-zero basis functions:      677 in task    38
  | Maximal number of non-zero basis functions:      686 in task    39
  | Maximal number of non-zero basis functions:      644 in task    40
  | Maximal number of non-zero basis functions:      692 in task    41
  | Maximal number of non-zero basis functions:      712 in task    42
  | Maximal number of non-zero basis functions:      666 in task    43
  | Maximal number of non-zero basis functions:      696 in task    44
  | Maximal number of non-zero basis functions:      680 in task    45
  | Maximal number of non-zero basis functions:      706 in task    46
  | Maximal number of non-zero basis functions:      708 in task    47
  | Maximal number of non-zero basis functions:      686 in task    48
  | Maximal number of non-zero basis functions:      671 in task    49
  | Maximal number of non-zero basis functions:      714 in task    50
  | Maximal number of non-zero basis functions:      707 in task    51
  | Maximal number of non-zero basis functions:      725 in task    52
  | Maximal number of non-zero basis functions:      681 in task    53
  | Maximal number of non-zero basis functions:      686 in task    54
  | Maximal number of non-zero basis functions:      714 in task    55
  | Maximal number of non-zero basis functions:      685 in task    56
  | Maximal number of non-zero basis functions:      709 in task    57
  | Maximal number of non-zero basis functions:      682 in task    58
  | Maximal number of non-zero basis functions:      667 in task    59
  | Maximal number of non-zero basis functions:      714 in task    60
  | Maximal number of non-zero basis functions:      692 in task    61
  | Maximal number of non-zero basis functions:      675 in task    62
  | Maximal number of non-zero basis functions:      668 in task    63
  Available memory per node after get_n_compute_maxes_p1 [GB]:    766.03
  Initialize hartree_potential_storage
  Max. number of atoms included in rho_multipole:           24

  Evaluating partitioned Hartree potential by multipole expansion.
  | Original multipole sum: apparent total charge =  -0.181911E-14
  | Sum of charges compensated after spline to logarithmic grids =   0.000000E+00
  | Analytical far-field extrapolation by fixed multipoles:
  | Hartree multipole sum: apparent total charge =   0.000000E+00
  Summing up the Hartree potential.
  | Ewald reciprocal-space coefficients, myid =     0 : cpu      0.000 s, wall      0.000 s.
  | Ewald reciprocal-space coefficients, myid =     1 : cpu      0.000 s, wall      0.000 s.
  | Ewald reciprocal-space coefficients, myid =     2 : cpu      0.000 s, wall      0.000 s.
  | Ewald reciprocal-space coefficients, myid =     3 : cpu      0.000 s, wall      0.000 s.
  | Ewald reciprocal-space coefficients, myid =     4 : cpu      0.000 s, wall      0.000 s.
  | Ewald reciprocal-space coefficients, myid =     5 : cpu      0.000 s, wall      0.000 s.
  | Ewald reciprocal-space coefficients, myid =     6 : cpu      0.000 s, wall      0.000 s.
  | Ewald reciprocal-space coefficients, myid =     7 : cpu      0.000 s, wall      0.000 s.
  | Ewald reciprocal-space coefficients, myid =     8 : cpu      0.000 s, wall      0.000 s.
  | Ewald reciprocal-space coefficients, myid =     9 : cpu      0.000 s, wall      0.000 s.
  | Ewald reciprocal-space coefficients, myid =    10 : cpu      0.000 s, wall      0.000 s.
  | Ewald reciprocal-space coefficients, myid =    11 : cpu      0.000 s, wall      0.000 s.
  | Ewald reciprocal-space coefficients, myid =    12 : cpu      0.000 s, wall      0.000 s.
  | Ewald reciprocal-space coefficients, myid =    13 : cpu      0.000 s, wall      0.000 s.
  | Ewald reciprocal-space coefficients, myid =    14 : cpu      0.000 s, wall      0.000 s.
  | Ewald reciprocal-space coefficients, myid =    15 : cpu      0.000 s, wall      0.000 s.
  | Ewald reciprocal-space coefficients, myid =    16 : cpu      0.000 s, wall      0.000 s.
  | Ewald reciprocal-space coefficients, myid =    17 : cpu      0.000 s, wall      0.000 s.
  | Ewald reciprocal-space coefficients, myid =    18 : cpu      0.000 s, wall      0.000 s.
  | Ewald reciprocal-space coefficients, myid =    19 : cpu      0.000 s, wall      0.000 s.
  | Ewald reciprocal-space coefficients, myid =    20 : cpu      0.000 s, wall      0.000 s.
  | Ewald reciprocal-space coefficients, myid =    21 : cpu      0.000 s, wall      0.000 s.
  | Ewald reciprocal-space coefficients, myid =    22 : cpu      0.000 s, wall      0.000 s.
  | Ewald reciprocal-space coefficients, myid =    23 : cpu      0.000 s, wall      0.000 s.
  | Ewald reciprocal-space coefficients, myid =    24 : cpu      0.000 s, wall      0.000 s.
  | Ewald reciprocal-space coefficients, myid =    25 : cpu      0.000 s, wall      0.000 s.
  | Ewald reciprocal-space coefficients, myid =    26 : cpu      0.000 s, wall      0.000 s.
  | Ewald reciprocal-space coefficients, myid =    27 : cpu      0.000 s, wall      0.000 s.
  | Ewald reciprocal-space coefficients, myid =    28 : cpu      0.000 s, wall      0.000 s.
  | Ewald reciprocal-space coefficients, myid =    29 : cpu      0.000 s, wall      0.000 s.
  | Ewald reciprocal-space coefficients, myid =    30 : cpu      0.000 s, wall      0.000 s.
  | Ewald reciprocal-space coefficients, myid =    31 : cpu      0.000 s, wall      0.000 s.
  | Ewald reciprocal-space coefficients, myid =    32 : cpu      0.000 s, wall      0.000 s.
  | Ewald reciprocal-space coefficients, myid =    33 : cpu      0.000 s, wall      0.000 s.
  | Ewald reciprocal-space coefficients, myid =    34 : cpu      0.000 s, wall      0.000 s.
  | Ewald reciprocal-space coefficients, myid =    35 : cpu      0.000 s, wall      0.000 s.
  | Ewald reciprocal-space coefficients, myid =    36 : cpu      0.000 s, wall      0.000 s.
  | Ewald reciprocal-space coefficients, myid =    37 : cpu      0.000 s, wall      0.000 s.
  | Ewald reciprocal-space coefficients, myid =    38 : cpu      0.000 s, wall      0.000 s.
  | Ewald reciprocal-space coefficients, myid =    39 : cpu      0.000 s, wall      0.000 s.
  | Ewald reciprocal-space coefficients, myid =    40 : cpu      0.000 s, wall      0.000 s.
  | Ewald reciprocal-space coefficients, myid =    41 : cpu      0.000 s, wall      0.000 s.
  | Ewald reciprocal-space coefficients, myid =    42 : cpu      0.000 s, wall      0.000 s.
  | Ewald reciprocal-space coefficients, myid =    43 : cpu      0.000 s, wall      0.000 s.
  | Ewald reciprocal-space coefficients, myid =    44 : cpu      0.000 s, wall      0.000 s.
  | Ewald reciprocal-space coefficients, myid =    45 : cpu      0.000 s, wall      0.000 s.
  | Ewald reciprocal-space coefficients, myid =    46 : cpu      0.000 s, wall      0.000 s.
  | Ewald reciprocal-space coefficients, myid =    47 : cpu      0.000 s, wall      0.000 s.
  | Ewald reciprocal-space coefficients, myid =    48 : cpu      0.000 s, wall      0.000 s.
  | Ewald reciprocal-space coefficients, myid =    49 : cpu      0.000 s, wall      0.000 s.
  | Ewald reciprocal-space coefficients, myid =    50 : cpu      0.000 s, wall      0.000 s.
  | Ewald reciprocal-space coefficients, myid =    51 : cpu      0.000 s, wall      0.000 s.
  | Ewald reciprocal-space coefficients, myid =    52 : cpu      0.000 s, wall      0.000 s.
  | Ewald reciprocal-space coefficients, myid =    53 : cpu      0.000 s, wall      0.000 s.
  | Ewald reciprocal-space coefficients, myid =    54 : cpu      0.000 s, wall      0.000 s.
  | Ewald reciprocal-space coefficients, myid =    55 : cpu      0.000 s, wall      0.000 s.
  | Ewald reciprocal-space coefficients, myid =    56 : cpu      0.000 s, wall      0.000 s.
  | Ewald reciprocal-space coefficients, myid =    57 : cpu      0.000 s, wall      0.000 s.
  | Ewald reciprocal-space coefficients, myid =    58 : cpu      0.000 s, wall      0.000 s.
  | Ewald reciprocal-space coefficients, myid =    59 : cpu      0.000 s, wall      0.000 s.
  | Ewald reciprocal-space coefficients, myid =    60 : cpu      0.000 s, wall      0.000 s.
  | Ewald reciprocal-space coefficients, myid =    61 : cpu      0.000 s, wall      0.000 s.
  | Ewald reciprocal-space coefficients, myid =    62 : cpu      0.000 s, wall      0.000 s.
  | Ewald reciprocal-space coefficients, myid =    63 : cpu      0.000 s, wall      0.000 s.
  Time summed over all CPUs for potential: real work        0.032 s, elapsed        0.047 s
  | RMS charge density error from multipole expansion :   0.366924E-13
  | Average real-space part of the electrostatic potential :      0.00000000 eV

  Allocating        0.000 MB for KS_eigenvector_complex
  Available memory per node after allocate_matrices [GB]:    766.02
  Available memory per node after init_comm_sparse_local_matrix_scalapack [GB]:    766.02
  Integrating Hamiltonian matrix: batch-based integration.
  Time summed over all CPUs for integration: real work       32.128 s, elapsed       44.153 s => Consider using load balancing!
  Available memory per node after integrate hamiltonian matrix [GB]:    765.48
  Integrating overlap matrix.
  Time summed over all CPUs for integration: real work        5.066 s, elapsed        8.101 s
  Available memory per node after integrate ovlp matrix [GB]:    764.92
  Available memory per node after ASI_callbacks invoke [GB]:    764.92
  Available memory per node after save_overlap_scalapack [GB]:    764.92

  Updating Kohn-Sham eigenvalues and eigenvectors using ELSI and the (modified) LAPACK eigensolver.

  Obtaining occupation numbers and electronic chemical potential using ELSI.
  | Note that, for insulating systems, the printed 'chemical potential' value is not uniquely defined.
  | It can be anywhere in the energy gap, as long as it correctly separates occupied and unoccupied states.
  | In systems with a gap, the physically relevant chemical potential is the VBM or HOMO.

  | Chemical potential (Fermi level):    -5.43784174 eV
  Available memory per node after advance_KS_solution [GB]:    764.62
  Writing Kohn-Sham eigenvalues.

  Spin-up eigenvalues:
  K-point:       1 at    0.000000    0.000000    0.000000 (in units of recip. lattice)

  State    Occupation    Eigenvalue [Ha]    Eigenvalue [eV]
      1       1.00000        -179.962363        -4897.02506
      2       1.00000        -179.962363        -4897.02506
      3       1.00000        -179.961712        -4897.00734
      4       1.00000        -179.961712        -4897.00734
      5       1.00000        -179.961227        -4896.99415
      6       1.00000        -179.961227        -4896.99414
      7       1.00000        -179.961226        -4896.99413
      8       1.00000        -179.960683        -4896.97933
      9       1.00000         -24.506671         -666.86044
     10       1.00000         -19.737905         -537.09573
     11       1.00000         -19.737905         -537.09573
     12       1.00000         -19.737210         -537.07682
     13       1.00000         -19.737210         -537.07682
     14       1.00000         -19.736670         -537.06211
     15       1.00000         -19.736669         -537.06209
     16       1.00000         -19.736669         -537.06208
     17       1.00000         -19.736088         -537.04628
     18       1.00000         -19.034648         -517.95913
     19       1.00000         -19.034645         -517.95906
     20       1.00000         -19.034627         -517.95855
     21       1.00000         -19.034504         -517.95520
     22       1.00000         -19.034504         -517.95520
     23       1.00000         -19.034504         -517.95520
     24       1.00000         -19.034504         -517.95520
     25       1.00000         -19.034503         -517.95519
     26       1.00000         -19.034503         -517.95519
     27       1.00000         -19.034503         -517.95519
     28       1.00000         -19.034503         -517.95519
     29       1.00000         -19.001837         -517.06629
     30       1.00000         -19.001837         -517.06628
     31       1.00000         -19.001837         -517.06628
     32       1.00000         -19.001771         -517.06449
[...]
    176       0.00000          -0.258545           -7.03537
    177       0.00000          -0.253272           -6.89188
    178       0.00000          -0.251890           -6.85428
    179       0.00000          -0.243462           -6.62493
    180       0.00000          -0.235247           -6.40141
    181       0.00000          -0.213858           -5.81937
    182       0.00000          -0.202879           -5.52063
    183       0.00000          -0.197676           -5.37903
    184       0.00000          -0.196317           -5.34206
    185       0.00000          -0.184414           -5.01815
    186       0.00000          -0.183709           -4.99896
    187       0.00000          -0.179374           -4.88102
    188       0.00000          -0.178376           -4.85387
    189       0.00000          -0.177378           -4.82670
    190       0.00000          -0.164193           -4.46791
    191       0.00000          -0.147246           -4.00677
    192       0.00000          -0.132985           -3.61872
    193       0.00000          -0.131980           -3.59136
    194       0.00000          -0.124333           -3.38326
    195       0.00000          -0.050665           -1.37866
    196       0.00000          -0.028908           -0.78663
    197       0.00000          -0.024367           -0.66306
    198       0.00000           0.003477            0.09461
    199       0.00000           0.020662            0.56225
    200       0.00000           0.026780            0.72873
    201       0.00000           0.027681            0.75323
    202       0.00000           0.043179            1.17497
    203       0.00000           0.055809            1.51865
    204       0.00000           0.055922            1.52172
    205       0.00000           0.062671            1.70537
    206       0.00000           0.096303            2.62055
    207       0.00000           0.105141            2.86104
    208       0.00000           0.117359            3.19349
    209       0.00000           0.118832            3.23359
    210       0.00000           0.119074            3.24017
    211       0.00000           0.145139            3.94942
    212       0.00000           0.152989            4.16304
    213       0.00000           0.160132            4.35742
    214       0.00000           0.165764            4.51065
    215       0.00000           0.169681            4.61725
    216       0.00000           0.177316            4.82501
    217       0.00000           0.179873            4.89461
    218       0.00000           0.202799            5.51843
    219       0.00000           0.205929            5.60360
    220       0.00000           0.215185            5.85548
    221       0.00000           0.224718            6.11489
    222       0.00000           0.235457            6.40711
    223       0.00000           0.236317            6.43052
    224       0.00000           0.237867            6.47270
    225       0.00000           0.245738            6.68687
    226       0.00000           0.250942            6.82849
    227       0.00000           0.283824            7.72324
    228       0.00000           0.287498            7.82321
    229       0.00000           0.293158            7.97723
    230       0.00000           0.305151            8.30359
    231       0.00000           0.309069            8.41019
    232       0.00000           0.310388            8.44609
    233       0.00000           0.319660            8.69840
    234       0.00000           0.324308            8.82488
    235       0.00000           0.328756            8.94590
    236       0.00000           0.336644            9.16055
    237       0.00000           0.340886            9.27598
    238       0.00000           0.360578            9.81183
    239       0.00000           0.389240           10.59176
    240       0.00000           0.393477           10.70704
    241       0.00000           0.397419           10.81433
    242       0.00000           0.405850           11.04373
    243       0.00000           0.413246           11.24498
    244       0.00000           0.413387           11.24883

  Current spin moment of the entire structure :
  | N = N_up - N_down (sum over all k points):         0.00000
  | S (sum over all k points)                :         0.00000

  What follows are estimated values for band gap, HOMO, LUMO, etc.
  | They are estimated on a discrete k-point grid and not necessarily exact.
  | For converged numbers, create a DOS and/or band structure plot on a denser k-grid.

  Highest occupied state (VBM) at    -10.71370784 eV (relative to internal zero)
  | Occupation number:      1.00000000
  | K-point:       1 at    0.000000    0.000000    0.000000 (in units of recip. lattice)
  | Spin channel:        1

  Lowest unoccupied state (CBM) at    -9.63953318 eV (relative to internal zero)
  | Occupation number:      0.00000000
  | K-point:       1 at    0.000000    0.000000    0.000000 (in units of recip. lattice)
  | Spin channel:        1

  ESTIMATED overall HOMO-LUMO gap:      1.07417466 eV between HOMO at k-point 1 and LUMO at k-point 1
  | This appears to be a direct band gap.
  The gap value is above 0.2 eV. Unless you are using a very sparse k-point grid,
  this system is most likely an insulator or a semiconductor.

  Total energy components:
  | Sum of eigenvalues            :       -4793.75990119 Ha     -130444.84387210 eV
  | XC energy correction          :        -475.70633929 Ha      -12944.62810749 eV
  | XC potential correction       :         615.02285059 Ha       16735.62326370 eV
  | Free-atom electrostatic energy:       -3435.70079329 Ha      -93490.17531312 eV
  | Hartree energy correction     :          30.14459231 Ha         820.27609203 eV
  | Entropy correction            :           0.00000000 Ha           0.00000000 eV
  | ---------------------------
  | Total energy                  :       -8059.99959087 Ha     -219323.74793698 eV
  | Total energy, T -> 0          :       -8059.99959087 Ha     -219323.74793698 eV  <-- do not rely on this value for anything but (periodic) metals
  | Electronic free energy        :       -8059.99959087 Ha     -219323.74793698 eV

  Derived energy quantities:
  | Kinetic energy                :        8153.89453358 Ha      221878.75932572 eV
  | Electrostatic energy          :      -15738.18778516 Ha     -428257.87915521 eV
  | Energy correction for multipole
  | error in Hartree potential    :           0.07335695 Ha           1.99614406 eV
  | Sum of eigenvalues per atom                           :       -5435.20182800 eV
  | Total energy (T->0) per atom                          :       -9138.48949737 eV  <-- do not rely on this value for anything but (periodic) metals
  | Electronic free energy per atom                       :       -9138.48949737 eV
  End evaluation of scaled ZORA corrections.
  | Time for scaled ZORA corrections            :        1.335 s           1.334 s
------------------------------------------------------------

  Energy and forces in a compact form:
  | Total energy uncorrected      :         -0.219323747936976E+06 eV
  | Total energy corrected        :         -0.219323747936976E+06 eV  <-- do not rely on this value for anything but (periodic) metals
  | Electronic free energy        :         -0.219323747936976E+06 eV

  ------------------------------------ 
  Start decomposition of the XC Energy 
  ------------------------------------ 
  X and C from original XC functional choice 
  Hartree-Fock Energy :          0.000000000 Ha              0.000000000 eV
  X Energy            :       -463.750158557 Ha         -12619.283876429 eV
  C Energy            :        -11.956180732 Ha           -325.344231058 eV
  XC Energy w/o HF    :       -475.706339289 Ha         -12944.628107487 eV
  Total XC Energy     :       -475.706339289 Ha         -12944.628107487 eV
  ------------------------------------ 
  LDA X and C from self-consistent density 
  X Energy LDA        :       -430.340735093 Ha         -11710.167208637 eV
  C Energy LDA        :        -23.494646102 Ha           -639.321848761 eV
  ------------------------------------ 
  End decomposition of the XC Energy 
  ------------------------------------ 

------------------------------------------------------------

  ------------------------------------------------------------
                   Starting Mulliken Analysis
  ------------------------------------------------------------

  Performing Mulliken charge analysis on all atoms.
  Full analysis will be written to separate file 'Mulliken.out'.
  Summary of the per-atom charge analysis:
  |
  |  atom       electrons          charge             l=0             l=1             l=2             l=3
  |     1        8.376728       -0.376728        3.891086        4.473666        0.011976
  |     2        8.624332       -0.624332        3.859927        4.753623        0.010783
  |     3       20.673039        1.326961        6.083899       12.418265        2.049498        0.121377
  |     4       20.909858        1.090142        6.039565       12.506439        2.220647        0.143207
  |     5        8.624335       -0.624335        3.859926        4.753626        0.010783
  |     6        8.579012       -0.579012        3.839492        4.728715        0.010805
  |     7        8.579979       -0.579979        3.837576        4.731573        0.010829
  |     8        8.642894       -0.642894        3.857316        4.775460        0.010118
  |     9       20.669571        1.330429        6.084914       12.413864        2.050460        0.120333
  |    10       20.901493        1.098507        6.043720       12.490241        2.227159        0.140373
  |    11        8.642892       -0.642892        3.857317        4.775457        0.010118
  |    12        8.343661       -0.343661        3.893037        4.438455        0.012169
  |    13        8.377880       -0.377880        3.890588        4.475305        0.011986
  |    14        8.624332       -0.624332        3.859927        4.753623        0.010783
  |    15       20.664586        1.335414        6.075776       12.423653        2.044132        0.121025
  |    16       20.909858        1.090142        6.039565       12.506439        2.220647        0.143207
  |    17        8.624335       -0.624335        3.859926        4.753626        0.010783
  |    18        8.593841       -0.593841        3.838361        4.744652        0.010828
  |    19        9.394888       -0.394888        3.927133        5.454927        0.012828
  |    20        8.642894       -0.642894        3.857316        4.775460        0.010118
  |    21       20.694794        1.305206        6.089427       12.420884        2.063899        0.120584
  |    22       20.901493        1.098507        6.043720       12.490241        2.227159        0.140373
  |    23        8.642892       -0.642892        3.857317        4.775457        0.010118
  |    24        8.360414       -0.360414        3.890891        4.456925        0.012597
  |
  | Total      304.000000        1.000000
 
  Summary of the per-atom spin analysis:
  |
  |  atom   spin      l=0         l=1         l=2         l=3
  |     1    0.000000    0.000000    0.000000    0.000000
  |     2   -0.000000    0.000000   -0.000000    0.000000
  |     3   -0.000000   -0.000000   -0.000000   -0.000000    0.000000
  |     4    0.000000    0.000000    0.000000   -0.000000   -0.000000
  |     5    0.000000    0.000000    0.000000    0.000000
  |     6    0.000000    0.000000   -0.000000   -0.000000
  |     7   -0.000000   -0.000000    0.000000   -0.000000
  |     8    0.000000    0.000000    0.000000    0.000000
  |     9    0.000000    0.000000   -0.000000    0.000000    0.000000
  |    10   -0.000000   -0.000000   -0.000000   -0.000000   -0.000000
  |    11    0.000000   -0.000000    0.000000   -0.000000
  |    12    0.000000    0.000000    0.000000    0.000000
  |    13    0.000000    0.000000   -0.000000   -0.000000
  |    14    0.000000    0.000000    0.000000   -0.000000
  |    15    0.000000    0.000000    0.000000   -0.000000    0.000000
  |    16    0.000000    0.000000    0.000000    0.000000    0.000000
  |    17   -0.000000   -0.000000   -0.000000    0.000000
  |    18   -0.000000   -0.000000   -0.000000   -0.000000
  |    19    0.000000    0.000000   -0.000000   -0.000000
  |    20    0.000000    0.000000    0.000000   -0.000000
  |    21    0.000000    0.000000    0.000000   -0.000000    0.000000
  |    22    0.000000    0.000000    0.000000   -0.000000    0.000000
  |    23   -0.000000   -0.000000   -0.000000    0.000000
  |    24    0.000000    0.000000    0.000000   -0.000000
  |
  | Total    0.000000
 
  Writing Mulliken decomposition to disk ...

  Mulliken analysis                                       :  max(cpu_time)    wall_clock(cpu1)
  | Time for Mulliken analysis                            :          2.464               2.464
  | Total time for Mulliken analysis                      :          2.464               2.464
------------------------------------------------------------

------------------------------------------------------------------------------
  Final output of selected total energy values:

  The following output summarizes some interesting total energy values
  at the end of a run (AFTER all relaxation, molecular dynamics, etc.).

  | Total energy of the DFT / Hartree-Fock s.c.f. calculation      :        -219323.747936976 eV
  | Final zero-broadening corrected energy (caution - metals only) :        -219323.747936976 eV
  | For reference only, the value of 1 Hartree used in FHI-aims is :             27.211384500 eV
  | For reference only, the overall average (free atom contribution
  | + realspace contribution) of the electrostatic potential after
  | s.c.f. convergence is                                          :             -5.282737712 eV

  Before relying on these values, please be sure to understand exactly which
  total energy value is referred to by a given number. Different objects may
  all carry the same name 'total energy'. Definitions:

  Total energy of the DFT / Hartree-Fock s.c.f. calculation:
  | Note that this energy does not include ANY quantities calculated after the
  | s.c.f. cycle, in particular not ANY RPA, MP2, etc. many-body perturbation terms.
  | Scalar relativistic effects have been included in the 'scaled ZORA' approximation.

  Final zero-broadening corrected energy:
  | For metallic systems only, a broadening of the occupation numbers at the Fermi
  | level can be extrapolated back to zero broadening by an electron-gas inspired
  | formula. For all systems that are not real metals, this value can be
  | meaningless and should be avoided.

------------------------------------------------------------------------------
  Methods described in the following list of references were used in this FHI-aims run.
  If you publish the results, please make sure to cite these reference if they apply.
  FHI-aims is an academic code, and for our developers (often, Ph.D. students
  and postdocs), scientific credit in the community is essential.
  Thank you for helping us!

  For any use of FHI-aims, please cite:

    Volker Blum, Ralf Gehrke, Felix Hanke, Paula Havu, Ville Havu,
    Xinguo Ren, Karsten Reuter, and Matthias Scheffler
    'Ab initio molecular simulations with numeric atom-centered orbitals'
    Computer Physics Communications 180, 2175-2196 (2009)
    http://doi.org/10.1016/j.cpc.2009.06.022


  The provided symmetry information was generated with SPGlib:

    Atsushi Togo, Yusuke Seto, Dimitar Pashov
    SPGlib 1.7.3 obtained from http://spglib.sourceforge.net
    Licence: New BSD license
    Copyright (C) 2008 Atsushi Togo


  The ELSI infrastructure was used in your run to solve the Kohn-Sham electronic structure.
  Please check out https://wordpress.elsi-interchange.org to learn more.
  If scalability is important for your project, please acknowledge ELSI by citing:

    V. W-z. Yu, F. Corsetti, A. Garcia, W. P. Huhn, M. Jacquelin, W. Jia,
    B. Lange, L. Lin, J. Lu, W. Mi, A. Seifitokaldani, A. Vazquez-Mayagoitia,
    C. Yang, H. Yang, and V. Blum
    'ELSI: A unified software interface for Kohn-Sham electronic structure solvers'
    Computer Physics Communications 222, 267-285 (2018).
    http://doi.org/10.1016/j.cpc.2017.09.007


  For the real-space grid partitioning and parallelization used in this calculation, please cite:

    Ville Havu, Volker Blum, Paula Havu, and Matthias Scheffler,
    'Efficient O(N) integration for all-electron electronic structure calculation'
    'using numerically tabulated basis functions'
    Journal of Computational Physics 228, 8367-8379 (2009).
    http://doi.org/10.1016/j.jcp.2009.08.008

  Of course, there are many other important community references, e.g., those cited in the
  above references. Our list is limited to references that describe implementations in the
  FHI-aims code. The reason is purely practical (length of this list) - please credit others as well.

 * A warning was issued further up regarding the CPU load.
   Some CPUs do not participate in the eigenvalue solution.
   In corner cases, this may be the correct behavior. Otherwise,
   consider using a scalapack/elpa version of the code for a parallel treatment.

------------------------------------------------------------
          Leaving FHI-aims.
          Date     :  20250328, Time     :  010110.586

          Computational steps:
          | Number of self-consistency cycles          :           26
          | Number of SCF (re)initializations          :            1

          Detailed time accounting                     :  max(cpu_time)    wall_clock(cpu1)
          | Total time                                  :       68.991 s          68.994 s
          | Preparation time                            :        0.515 s           0.512 s
          | Boundary condition initalization            :        0.053 s           0.054 s
          | Grid partitioning                           :        0.072 s           0.071 s
          | Preloading free-atom quantities on grid     :        0.185 s           0.185 s
          | Free-atom superposition energy              :        0.016 s           0.016 s
          | Total time for integrations                 :       19.256 s          19.254 s
          | Total time for solution of K.-S. equations  :        8.870 s           8.867 s
          | Total time for density update               :       19.169 s          19.169 s
          | Total time for mixing & preconditioning     :       14.410 s          14.410 s
          | Total time for Hartree multipole update     :        0.061 s           0.061 s
          | Total time for Hartree multipole sum        :        2.498 s           2.498 s
          | Total time for total energy evaluation      :        0.019 s           0.026 s
          | Total time for scaled ZORA corrections      :        1.335 s           1.334 s
          | Total time for Mulliken analysis            :        2.464 s           2.464 s

          Partial memory accounting:
          | Residual value for overall tracked memory usage across tasks:     0.000000 MB (should be 0.000000 MB)
          | Peak values for overall tracked memory usage:
          |   Minimum:       35.033 MB (on task 40 after allocating zora_vector2)
          |   Maximum:       40.957 MB (on task  5 after allocating zora_vector2)
          |   Average:       38.409 MB
          | Largest tracked array allocation:
          |   Minimum:        8.520 MB (hamiltonian on task  0)
          |   Maximum:        8.520 MB (hamiltonian on task  0)
          |   Average:        8.520 MB
          Note:  These values currently only include a subset of arrays which are explicitly tracked.
          The "true" memory usage will be greater.

          Have a nice day.
------------------------------------------------------------
