------------------------------------------------------------
          Invoking FHI-aims ...

          When using FHI-aims, please cite the following reference:

            Volker Blum, Ralf Gehrke, Felix Hanke, Paula Havu,
            Ville Havu, Xinguo Ren, Karsten Reuter, and Matthias Scheffler,
            'Ab Initio Molecular Simulations with Numeric Atom-Centered Orbitals',
            Computer Physics Communications 180, 2175-2196 (2009)

          In addition, many other developments in FHI-aims are likely important for
          your particular application. If so, please cite them. A partial list of references
          is written at the end of this file. Thank you for giving credit to the authors
          of these developments.

          For general information about FHI-aims please find us at

            https://fhi-aims.org

          Online tutorials can be found at

            https://fhi-aims-club.gitlab.io/tutorials/tutorials-overview/

          For any questions about FHI-aims, please visit our slack channel at

            https://fhi-aims.slack.com

          and our main development and support site at

            https://aims-git.rz-berlin.mpg.de .

          The latter site, in particular, has a wiki to collect information, as well
          as an issue tracker to log discussions, suggest improvements, and report issues
          or bugs. https://aims-git.rz-berlin.mpg.de is also the main development site
          of the project and all new and updated code versions can be obtained there.
          Please send an email to aims-coordinators@fhi-berlin.mpg.de and we will add
          you to these sites. They are for you and everyone is welcome there.

------------------------------------------------------------



  Date     :  20250120, Time     :  140522.007
  Time zero on CPU 1             :   0.426056000000000E+00  s.
  Internal wall clock time zero  :           506613922.007  s.

  FHI-aims created a unique identifier for this run for later identification
  aims_uuid : 5DF3DABD-4A0E-4F74-ABB9-B778BE10DC22

  Build configuration of the current instance of FHI-aims
  -------------------------------------------------------
  FHI-aims version      : 240605
  Commit number         : b001b2e18
  CMake host system     : Linux-6.5.0-41-generic
  CMake version         : 3.22.1
  Fortran compiler      : /opt/intel/oneapi/mpi/2021.12/bin/mpiifort (IntelLLVM) version 2024.1.0
  Fortran compiler flags: -fc=ifx -O3 -ip -fp-model precise
  C compiler            : /opt/intel/oneapi/mpi/2021.12/bin/mpiicc (IntelLLVM) version 2024.1.0
  C compiler flags      : -cc=icx -O3 -ip -fp-model precise -std=gnu99
  C++ compiler          : /opt/intel/oneapi/mpi/2021.12/bin/mpiicpc (IntelLLVM) version 2024.1.0
  C++ compiler flags    : -cxx=icpx -O3 -ip -fp-model precise -std=c++11
  HIP compiler          :
  HIP compiler flags    :
  HIP GPU arch          :
  Using MPI
  Using ScaLAPACK
  Using LibXC
  Using i-PI
  Using RLSY
  Linking against: /opt/intel/oneapi/mkl/2024.1/lib/intel64/libmkl_intel_lp64.so
                   /opt/intel/oneapi/mkl/2024.1/lib/intel64/libmkl_sequential.so
                   /opt/intel/oneapi/mkl/2024.1/lib/intel64/libmkl_core.so
                   /opt/intel/oneapi/mkl/2024.1/lib/intel64/libmkl_blacs_intelmpi_lp64.so
                   /opt/intel/oneapi/mkl/2024.1/lib/intel64/libmkl_scalapack_lp64.so
                   /opt/intel/oneapi/mkl/2024.1/lib/intel64/libmkl_core.so

  Using       32 parallel tasks.
  Task        0 on host RSL-arvutus reporting.
  Task        1 on host RSL-arvutus reporting.
  Task        2 on host RSL-arvutus reporting.
  Task        3 on host RSL-arvutus reporting.
  Task        4 on host RSL-arvutus reporting.
  Task        5 on host RSL-arvutus reporting.
  Task        6 on host RSL-arvutus reporting.
  Task        7 on host RSL-arvutus reporting.
  Task        8 on host RSL-arvutus reporting.
  Task        9 on host RSL-arvutus reporting.
  Task       10 on host RSL-arvutus reporting.
  Task       11 on host RSL-arvutus reporting.
  Task       12 on host RSL-arvutus reporting.
  Task       13 on host RSL-arvutus reporting.
  Task       14 on host RSL-arvutus reporting.
  Task       15 on host RSL-arvutus reporting.
  Task       16 on host RSL-arvutus reporting.
  Task       17 on host RSL-arvutus reporting.
  Task       18 on host RSL-arvutus reporting.
  Task       19 on host RSL-arvutus reporting.
  Task       20 on host RSL-arvutus reporting.
  Task       21 on host RSL-arvutus reporting.
  Task       22 on host RSL-arvutus reporting.
  Task       23 on host RSL-arvutus reporting.
  Task       24 on host RSL-arvutus reporting.
  Task       25 on host RSL-arvutus reporting.
  Task       26 on host RSL-arvutus reporting.
  Task       27 on host RSL-arvutus reporting.
  Task       28 on host RSL-arvutus reporting.
  Task       29 on host RSL-arvutus reporting.
  Task       30 on host RSL-arvutus reporting.
  Task       31 on host RSL-arvutus reporting.

  Memory overcommitment is allowed on your operating system.

  Obtaining array dimensions for all initial allocations:
  
  -----------------------------------------------------------------------
  Parsing control.in (first pass over file, find array dimensions only).
  The contents of control.in will be repeated verbatim below
  unless switched off by setting 'verbatim_writeout .false.' .
  in the first line of control.in .
  -----------------------------------------------------------------------
  
    xc              pbe
    relativistic    zora scalar 1.0e-12
    k_grid          8 17 1
    output          Mulliken
  
  
  ################################################################################
  #
  #  FHI-aims code project
  #  VB, Fritz-Haber Institut, 2009
  #
  #  Suggested "light" defaults for Ti atom (to be pasted into control.in file)
  #  Be sure to double-check any results obtained with these settings for post-processing,
  #  e.g., with the "tight" defaults and larger basis sets.
  #
  ################################################################################
    species        Ti
  #     global species definitions
      nucleus             22
      mass                47.867
  #
      l_hartree           4
  #
      cut_pot             3.5          1.5  1.0
      basis_dep_cutoff    1e-4
  #
      radial_base         48 5.0
      radial_multiplier   1
      angular_grids       specified
        division   0.5171   50
        division   0.9824  110
        division   1.2917  194
        division   1.4940  302
  #      division   1.6934  434
  #      division   1.8425  590
  #      division   2.1901  770
  #      division   2.2896  974
  #      division   2.8244 1202
  #      outer_grid  974
        outer_grid  302
  ################################################################################
  #
  #  Definition of "minimal" basis
  #
  ################################################################################
  #     valence basis states
      valence      4  s   2.
      valence      3  p   6.
      valence      3  d   2.
  #     ion occupancy
      ion_occ      4  s   1.
      ion_occ      3  p   6.
      ion_occ      3  d   1.
  ################################################################################
  #
  #  Suggested additional basis functions. For production calculations,
  #  uncomment them one after another (the most important basis functions are
  #  listed first).
  #
  #  Constructed for dimers: 1.6 A, 1.85 A, 2.5 A, 3.25 A, 4.25 A
  #
  ################################################################################
  #  "First tier" - improvements: -396.25 meV to -19.41 meV
       hydro 4 f 8
       hydro 3 d 2.7
       ionic 4 p auto
  #     hydro 5 g 11.6
       ionic 4 s auto
  #  "Second tier" - improvements: -16.30 meV to -2.03 meV
  #     hydro 3 d 4.4
  #     hydro 6 h 16
  #     hydro 4 f 9.4
  #     hydro 4 p 4.5
  #     hydro 1 s 0.5
  #  "Third tier" - improvements: -6.28 meV to -0.37 meV
  #     hydro 4 d 6.4
  #     hydro 4 f 10
  #     hydro 5 g 12
  #     hydro 2 p 1.7
  #     hydro 6 h 16.4
  #     hydro 4 s 3.8
  #  Further basis functions: -0.45 meV and smaller improvements
  #     hydro 3 d 8.8
  #     hydro 5 p 18
  #     hydro 4 f 22.4
  #     hydro 5 f 7.2  # -0.16 meV
  #     hydro 3 d 2.1  # -0.11 meV
  #     hydro 5 g 7.4  # -0.09 meV
  
  
  ################################################################################
  #
  #  FHI-aims code project
  #  VB, Fritz-Haber Institut, 2009
  #
  #  Suggested "light" defaults for O atom (to be pasted into control.in file)
  #  Be sure to double-check any results obtained with these settings for post-processing,
  #  e.g., with the "tight" defaults and larger basis sets.
  #
  ################################################################################
    species        O
  #     global species definitions
      nucleus             8
      mass                15.9994
  #
      l_hartree           4
  #
      cut_pot             3.5  1.5  1.0
      basis_dep_cutoff    1e-4
  #
      radial_base         36 5.0
      radial_multiplier   1
       angular_grids specified
        division   0.2659   50
        division   0.4451  110
        division   0.6052  194
        division   0.7543  302
  #      division   0.8014  434
  #      division   0.8507  590
  #      division   0.8762  770
  #      division   0.9023  974
  #      division   1.2339 1202
  #      outer_grid 974
        outer_grid 302
  ################################################################################
  #
  #  Definition of "minimal" basis
  #
  ################################################################################
  #     valence basis states
      valence      2  s   2.
      valence      2  p   4.
  #     ion occupancy
      ion_occ      2  s   1.
      ion_occ      2  p   3.
  ################################################################################
  #
  #  Suggested additional basis functions. For production calculations,
  #  uncomment them one after another (the most important basis functions are
  #  listed first).
  #
  #  Constructed for dimers: 1.0 A, 1.208 A, 1.5 A, 2.0 A, 3.0 A
  #
  ################################################################################
  #  "First tier" - improvements: -699.05 meV to -159.38 meV
       hydro 2 p 1.8
       hydro 3 d 7.6
       hydro 3 s 6.4
  #  "Second tier" - improvements: -49.91 meV to -5.39 meV
  #     hydro 4 f 11.6
  #     hydro 3 p 6.2
  #     hydro 3 d 5.6
  #     hydro 5 g 17.6
  #     hydro 1 s 0.75
  #  "Third tier" - improvements: -2.83 meV to -0.50 meV
  #     ionic 2 p auto
  #     hydro 4 f 10.8
  #     hydro 4 d 4.7
  #     hydro 2 s 6.8
  #  "Fourth tier" - improvements: -0.40 meV to -0.12 meV
  #     hydro 3 p 5
  #     hydro 3 s 3.3
  #     hydro 5 g 15.6
  #     hydro 4 f 17.6
  #     hydro 4 d 14
  # Further basis functions - -0.08 meV and below
  #     hydro 3 s 2.1
  #     hydro 4 d 11.6
  #     hydro 3 p 16
  #     hydro 2 s 17.2
  
  ################################################################################
  #
  #  "Core" basis functions and numerical settings for O atom.
  #  Based on “tight” defaults (V. Blum, 2009).
  #
  ################################################################################
    species        O1
  #     global species definitions
      nucleus             8.
      mass                15.9994
  #
      l_hartree           6
  #
      cut_pot             4.0  2.0  1.0
      basis_dep_cutoff    1e-4
  #
      radial_base         36 7.0
      radial_multiplier   2
       angular_grids specified
        division   0.1817   50
        division   0.3417  110
        division   0.4949  194
        division   0.6251  302
        division   0.8014  434
  #      division   0.8507  590
  #      division   0.8762  770
  #      division   0.9023  974
  #      division   1.2339 1202
  #      outer_grid 974
        outer_grid  434
  ################################################################################
  #
  #  Definition of "minimal" basis
  #
  ################################################################################
  #     valence basis states
      valence      2  s   2.
      valence      2  p   4.
  #     ion occupancy
      ion_occ      2  s   1.
      ion_occ      2  p   3.
  ################################################################################
  #
  #  Suggested additional basis functions. For production calculations,
  #  uncomment them one after another (the most important basis functions are
  #  listed first).
  #
  #  Constructed for dimers: 1.0 A, 1.208 A, 1.5 A, 2.0 A, 3.0 A
  #
  ################################################################################
  #  "First tier" - improvements: -699.05 meV to -159.38 meV
       hydro 2 p 1.8
       hydro 3 d 7.6
       hydro 3 s 6.4
  #  "Second tier" - improvements: -49.91 meV to -5.39 meV
       hydro 4 f 11.6
       hydro 3 p 6.2
       hydro 3 d 5.6
       hydro 5 g 17.6
       hydro 1 s 0.75
  #  "Third tier" - improvements: -2.83 meV to -0.50 meV
       ionic 2 p auto
       hydro 4 f 10.8
       hydro 4 d 4.7
       hydro 2 s 6.8
  #  "Fourth tier" - improvements: -0.40 meV to -0.12 meV
  #     hydro 3 p 5
  #     hydro 3 s 3.3
  #     hydro 5 g 15.6
  #     hydro 4 f 17.6
  #     hydro 4 d 14
  # Further basis functions - -0.08 meV and below
  #     hydro 3 s 2.1
  #     hydro 4 d 11.6
  #     hydro 3 p 16
  #     hydro 2 s 17.2
  
  # Additional basis functions for atom with a core hole
       hydro 1 s 12.0
       hydro 1 s 10.0
       hydro 1 s 6.0
       hydro 2 s 10.0
       hydro 2 p 8.0
       hydro 2 p 6.0
       hydro 3 d 8.0
  
  -----------------------------------------------------------------------
  Completed first pass over input file control.in .
  -----------------------------------------------------------------------
  
  
  -----------------------------------------------------------------------
  Parsing geometry.in (first pass over file, find array dimensions only).
  The contents of geometry.in will be repeated verbatim below
  unless switched off by setting 'verbatim_writeout .false.' .
  in the first line of geometry.in .
  -----------------------------------------------------------------------
  
  lattice_vector 6.566127 0.000000 0.000000
  lattice_vector 0.000000 2.972883 0.000000
  lattice_vector 0.000000 0.000000 22.332457
  
  atom_frac 0.999994 0.000000 0.368597 O
  atom_frac 0.305556 0.500000 0.425767 O
  atom_frac 0.499997 0.000000 0.425768 Ti
  atom_frac 0.999997 0.500000 0.425768 Ti
  atom_frac 0.694439 0.500000 0.425769 O
  atom_frac 0.000001 0.000000 0.482939 O
  atom_frac 0.499991 0.000000 0.515613 O
  atom_frac 0.805553 0.500000 0.572783 O
  atom_frac 0.999995 0.000000 0.572784 Ti
  atom_frac 0.499995 0.500000 0.572784 Ti
  atom_frac 0.194436 0.500000 0.572786 O
  atom_frac 0.499998 0.000000 0.629955 O
  
  -----------------------------------------------------------------------
  Completed first pass over input file geometry.in .
  -----------------------------------------------------------------------
  

  Basic array size parameters:
  | Number of species                 :        3
  | Number of atoms                   :       12
  | Number of lattice vectors         :        3
  | Max. basis fn. angular momentum   :        4
  | Max. atomic/ionic basis occupied n:        4
  | Max. number of basis fn. types    :        3
  | Max. radial fns per species/type  :       18
  | Max. logarithmic grid size        :     1383
  | Max. radial integration grid size :       73
  | Max. angular integration grid size:      434
  | Max. angular grid division number :        8
  | Radial grid for Hartree potential :     1383
  | Number of spin channels           :        1

------------------------------------------------------------
          Reading file control.in.
------------------------------------------------------------
  XC: Using PBE gradient-corrected functionals.
  Scalar relativistic treatment of kinetic energy: ZORA.
  Threshold value for ZORA:   0.100000E-11
  Found k-point grid:         8        17         1
  Mulliken charge analysis will be performed and summarised to the main output.
  Full Mulliken charge analysis will be written to file 'Mulliken.out'.
 
  Reading configuration options for species Ti                  .
  | Found nuclear charge :  22.0000
  | Found atomic mass :    47.8670000000000      amu
  | Found l_max for Hartree potential  :   4
  | Found cutoff potl. onset [A], width [A], scale factor :    3.50000    1.50000    1.00000
  | Threshold for basis-dependent cutoff potential is   0.100000E-03
  | Found data for basic radial integration grid :    48 points, outermost radius =    5.000 A
  | Found multiplier for basic radial grid :   1
  | Found angular grid specification: user-specified.
  | Specified grid contains     5 separate shells.
  | Check grid settings after all constraints further below.
  | Found free-atom valence shell :  4 s   2.000
  | Found free-atom valence shell :  3 p   6.000
  | Found free-atom valence shell :  3 d   2.000
  | Found free-ion valence shell :  4 s   1.000
  | Found free-ion valence shell :  3 p   6.000
  | Found free-ion valence shell :  3 d   1.000
  | Found hydrogenic basis function :  4 f   8.000
  | Found hydrogenic basis function :  3 d   2.700
  | Found ionic basis function :  4 p , default cutoff radius.
  | Found ionic basis function :  4 s , default cutoff radius.
 | Encountered keyword species, ending the description of species Ti                  .
  Species Ti                  : Missing cutoff potential type.
  Defaulting to exp(1/x)/(1-x)^2 type cutoff potential.
  Species Ti: No 'logarithmic' tag. Using default grid for free atom:
  | Default logarithmic grid data [bohr] : 0.1000E-03 0.1000E+03 0.1012E+01
  | Will include ionic basis functions of  2.0-fold positive Ti                   ion.
  Species Ti: On-site basis accuracy parameter (for Gram-Schmidt orthonormalisation) not specified.
  Using default value basis_acc =  0.1000000E-03.
  Species Ti                  : Using default innermost maximum threshold i_radial=  2 for radial functions.
  Species Ti                  : Default cutoff onset for free atom density etc. : 0.35000000E+01 AA.
  Species Ti                  : Basic radial grid will be enhanced according to radial_multiplier =   1, to contain    48 grid points.
 
  Reading configuration options for species O                   .
  | Found nuclear charge :   8.0000
  | Found atomic mass :    15.9994000000000      amu
  | Found l_max for Hartree potential  :   4
  | Found cutoff potl. onset [A], width [A], scale factor :    3.50000    1.50000    1.00000
  | Threshold for basis-dependent cutoff potential is   0.100000E-03
  | Found data for basic radial integration grid :    36 points, outermost radius =    5.000 A
  | Found multiplier for basic radial grid :   1
  | Found angular grid specification: user-specified.
  | Specified grid contains     5 separate shells.
  | Check grid settings after all constraints further below.
  | Found free-atom valence shell :  2 s   2.000
  | Found free-atom valence shell :  2 p   4.000
  | Found free-ion valence shell :  2 s   1.000
  | Found free-ion valence shell :  2 p   3.000
  | Found hydrogenic basis function :  2 p   1.800
  | Found hydrogenic basis function :  3 d   7.600
  | Found hydrogenic basis function :  3 s   6.400
 | Encountered keyword species, ending the description of species O                   .
  Species O                   : Missing cutoff potential type.
  Defaulting to exp(1/x)/(1-x)^2 type cutoff potential.
  Species O : No 'logarithmic' tag. Using default grid for free atom:
  | Default logarithmic grid data [bohr] : 0.1000E-03 0.1000E+03 0.1012E+01
  Species O : On-site basis accuracy parameter (for Gram-Schmidt orthonormalisation) not specified.
  Using default value basis_acc =  0.1000000E-03.
  Species O                   : Using default innermost maximum threshold i_radial=  2 for radial functions.
  Species O                   : Default cutoff onset for free atom density etc. : 0.35000000E+01 AA.
  Species O                   : Basic radial grid will be enhanced according to radial_multiplier =   1, to contain    36 grid points.
 
  Reading configuration options for species O1                  .
  | Found nuclear charge :   8.0000
  | Found atomic mass :    15.9994000000000      amu
  | Found l_max for Hartree potential  :   6
  | Found cutoff potl. onset [A], width [A], scale factor :    4.00000    2.00000    1.00000
  | Threshold for basis-dependent cutoff potential is   0.100000E-03
  | Found data for basic radial integration grid :    36 points, outermost radius =    7.000 A
  | Found multiplier for basic radial grid :   2
  | Found angular grid specification: user-specified.
  | Specified grid contains     6 separate shells.
  | Check grid settings after all constraints further below.
  | Found free-atom valence shell :  2 s   2.000
  | Found free-atom valence shell :  2 p   4.000
  | Found free-ion valence shell :  2 s   1.000
  | Found free-ion valence shell :  2 p   3.000
  | Found hydrogenic basis function :  2 p   1.800
  | Found hydrogenic basis function :  3 d   7.600
  | Found hydrogenic basis function :  3 s   6.400
  | Found hydrogenic basis function :  4 f  11.600
  | Found hydrogenic basis function :  3 p   6.200
  | Found hydrogenic basis function :  3 d   5.600
  | Found hydrogenic basis function :  5 g  17.600
  | Found hydrogenic basis function :  1 s   0.750
  | Found ionic basis function :  2 p , default cutoff radius.
  | Found hydrogenic basis function :  4 f  10.800
  | Found hydrogenic basis function :  4 d   4.700
  | Found hydrogenic basis function :  2 s   6.800
  | Found hydrogenic basis function :  1 s  12.000
  | Found hydrogenic basis function :  1 s  10.000
  | Found hydrogenic basis function :  1 s   6.000
  | Found hydrogenic basis function :  2 s  10.000
  | Found hydrogenic basis function :  2 p   8.000
  | Found hydrogenic basis function :  2 p   6.000
  | Found hydrogenic basis function :  3 d   8.000
  Species O1                  : Missing cutoff potential type.
  Defaulting to exp(1/x)/(1-x)^2 type cutoff potential.
  Species O1: No 'logarithmic' tag. Using default grid for free atom:
  | Default logarithmic grid data [bohr] : 0.1000E-03 0.1000E+03 0.1012E+01
  | Will include ionic basis functions of  2.0-fold positive O1                   ion.
  Species O1: On-site basis accuracy parameter (for Gram-Schmidt orthonormalisation) not specified.
  Using default value basis_acc =  0.1000000E-03.
  Species O1                  : Using default innermost maximum threshold i_radial=  2 for radial functions.
  Species O1                  : Default cutoff onset for free atom density etc. : 0.40000000E+01 AA.
  Species O1                  : Basic radial grid will be enhanced according to radial_multiplier =   2, to contain    73 grid points.
 
  Finished reading input file 'control.in'.
 
------------------------------------------------------------


------------------------------------------------------------
          Reading geometry description geometry.in.
------------------------------------------------------------
  | The smallest distance between any two atoms is         1.95947270 AA.
  | The first atom of this pair is atom number                      2 .
  | The second atom of this pair is atom number                     3 .
  | Wigner-Seitz cell of the first atom image           0     0     0 .
  | (The Wigner-Seitz cell of the second atom is 0 0 0  by definition.)

  Symmetry information by spglib:
  | Precision set to  0.1E-04
  | Number of Operations  : 2
  | Space group           : 6
  | International         : Pm      /op
  | Schoenflies           : Cs^1
  Input structure read successfully.
  The structure contains       12 atoms,  and a total of        152.000 electrons.

  Input geometry:
  | Unit cell:
  |        6.56612700        0.00000000        0.00000000
  |        0.00000000        2.97288300        0.00000000
  |        0.00000000        0.00000000       22.33245700
  | Atomic structure:
  |       Atom                x [A]            y [A]            z [A]
  |    1: Species O             6.56608760        0.00000000        8.23167665
  |    2: Species O             2.00631950        1.48644150        9.50842322
  |    3: Species Ti            3.28304380        0.00000000        9.50844555
  |    4: Species Ti            6.56610730        1.48644150        9.50844555
  |    5: Species O             4.55977467        1.48644150        9.50846788
  |    6: Species O             0.00000657        0.00000000       10.78521445
  |    7: Species O             3.28300440        0.00000000       11.51490515
  |    8: Species O             5.28936330        1.48644150       12.79165172
  |    9: Species Ti            6.56609417        0.00000000       12.79167405
  |   10: Species Ti            3.28303067        1.48644150       12.79167405
  |   11: Species O             1.27669147        1.48644150       12.79171872
  |   12: Species O             3.28305037        0.00000000       14.06844295

  Lattice parameters for 3D lattice (in Angstroms) :     6.566127    2.972883   22.332457
  Angle(s) between unit vectors (in degrees)       :    90.000000   90.000000   90.000000


  Quantities derived from the lattice vectors (in Angstrom^-1):
  | Reciprocal lattice vector 1:  0.956909  0.000000  0.000000
  | Reciprocal lattice vector 2:  0.000000  2.113499  0.000000
  | Reciprocal lattice vector 3:  0.000000  0.000000  0.281348
  | Unit cell volume                               :   0.435937E+03  Angstrom^3

  Fractional coordinates:
                         L1                L2                L3
       atom_frac         0.99999400        0.00000000        0.36859700  O
       atom_frac         0.30555600        0.50000000        0.42576700  O
       atom_frac         0.49999700        0.00000000        0.42576800  Ti
       atom_frac         0.99999700        0.50000000        0.42576800  Ti
       atom_frac         0.69443900        0.50000000        0.42576900  O
       atom_frac         0.00000100        0.00000000        0.48293900  O
       atom_frac         0.49999100        0.00000000        0.51561300  O
       atom_frac         0.80555300        0.50000000        0.57278300  O
       atom_frac         0.99999500        0.00000000        0.57278400  Ti
       atom_frac         0.49999500        0.50000000        0.57278400  Ti
       atom_frac         0.19443600        0.50000000        0.57278600  O
       atom_frac         0.49999800        0.00000000        0.62995500  O

  Slab Identifier: This is Z-oriented slab and maximum thickness of the vacuum is: 16.496 Angstrom.
 
  Finished reading input file 'geometry.in'.
 

 
  Consistency checks for stacksize environment parameter are next.
 
  | Maximum stacksize for task 0: unlimited
  | Maximum stacksize for task 1: unlimited
  | Maximum stacksize for task 2: unlimited
  | Maximum stacksize for task 3: unlimited
  | Maximum stacksize for task 4: unlimited
  | Maximum stacksize for task 5: unlimited
  | Maximum stacksize for task 6: unlimited
  | Maximum stacksize for task 7: unlimited
  | Maximum stacksize for task 8: unlimited
  | Maximum stacksize for task 9: unlimited
  | Maximum stacksize for task 10: unlimited
  | Maximum stacksize for task 11: unlimited
  | Maximum stacksize for task 12: unlimited
  | Maximum stacksize for task 13: unlimited
  | Maximum stacksize for task 14: unlimited
  | Maximum stacksize for task 15: unlimited
  | Maximum stacksize for task 16: unlimited
  | Maximum stacksize for task 17: unlimited
  | Maximum stacksize for task 18: unlimited
  | Maximum stacksize for task 19: unlimited
  | Maximum stacksize for task 20: unlimited
  | Maximum stacksize for task 21: unlimited
  | Maximum stacksize for task 22: unlimited
  | Maximum stacksize for task 23: unlimited
  | Maximum stacksize for task 24: unlimited
  | Maximum stacksize for task 25: unlimited
  | Maximum stacksize for task 26: unlimited
  | Maximum stacksize for task 27: unlimited
  | Maximum stacksize for task 28: unlimited
  | Maximum stacksize for task 29: unlimited
  | Maximum stacksize for task 30: unlimited
  | Maximum stacksize for task 31: unlimited
  | Current stacksize for task 0: unlimited
  | Current stacksize for task 1: unlimited
  | Current stacksize for task 2: unlimited
  | Current stacksize for task 3: unlimited
  | Current stacksize for task 4: unlimited
  | Current stacksize for task 5: unlimited
  | Current stacksize for task 6: unlimited
  | Current stacksize for task 7: unlimited
  | Current stacksize for task 8: unlimited
  | Current stacksize for task 9: unlimited
  | Current stacksize for task 10: unlimited
  | Current stacksize for task 11: unlimited
  | Current stacksize for task 12: unlimited
  | Current stacksize for task 13: unlimited
  | Current stacksize for task 14: unlimited
  | Current stacksize for task 15: unlimited
  | Current stacksize for task 16: unlimited
  | Current stacksize for task 17: unlimited
  | Current stacksize for task 18: unlimited
  | Current stacksize for task 19: unlimited
  | Current stacksize for task 20: unlimited
  | Current stacksize for task 21: unlimited
  | Current stacksize for task 22: unlimited
  | Current stacksize for task 23: unlimited
  | Current stacksize for task 24: unlimited
  | Current stacksize for task 25: unlimited
  | Current stacksize for task 26: unlimited
  | Current stacksize for task 27: unlimited
  | Current stacksize for task 28: unlimited
  | Current stacksize for task 29: unlimited
  | Current stacksize for task 30: unlimited
  | Current stacksize for task 31: unlimited
 
  Consistency checks for the contents of control.in are next.
 
  MPI_IN_PLACE appears to work with this MPI implementation.
  | Keeping use_mpi_in_place .true. (see manual).
  Target number of points in a grid batch is not set. Defaulting to  100
  Method for grid partitioning is not set. Defaulting to parallel hash+maxmin partitioning.
  Batch size limit is not set. Defaulting to    200
  By default, will store active basis functions for each batch.
  If in need of memory, prune_basis_once .false. can be used to disable this option.
  communication_type for Hartree potential was not specified.
  Defaulting to calc_hartree .
  Defaulting to Pulay charge density mixer.
  Pulay mixer: Number of relevant iterations not set.
  Defaulting to    8 iterations.
  Pulay mixer: Number of initial linear mixing iterations not set.
  Defaulting to    0 iterations.
  Work space size for distributed Hartree potential not set.
  Defaulting to   0.200000E+03 MB.
  Mixing parameter for charge density mixing has not been set.
  Using default: charge_mix_param =     0.0500.
  The mixing parameter will be adjusted in iteration number     2 of each s.c.f. cycle (i.e., each geometry step).
  Algorithm-dependent basis array size parameters:
  | n_max_pulay                         :        8
  Maximum number of self-consistency iterations not provided.
  Presetting  1000 iterations.
  Presetting      1001 iterations before the initial mixing cycle
  is restarted anyway using the sc_init_iter criterion / keyword.
  Presetting a factor      1.000 between actual scf density residual
  and density convergence criterion sc_accuracy_rho below which sc_init_iter
  takes no effect.
 * No s.c.f. convergence criteria (sc_accuracy_*) were provided in control.in.
 * The run will proceed with a reasonable default guess, but please check whether.
 * the s.c.f. cycles seem to take too much or too little time.
  Calculation of forces was not defined in control.in. No forces will be calculated.
  Geometry relaxation not requested: no relaxation will be performed.
 * Notice: The s.c.f. convergence criterion sc_accuracy_rho was not provided.
 * We used to stop in this case, and ask the user to provide reasonable
 * scf convergence criteria. However, this led some users to employ criteria
 * that led to extremely long run times, e.g., for simple relaxation.
 * We now preset a default value for sc_accuracy_rho if it is not set.
 * You may still wish to check if this setting is too tight or too loose for your needs.
 * Based on n_atoms and forces and force-correction status, FHI-aims chose sc_accuracy_rho =  0.141421E-05 .
  No accuracy limit for integral partition fn. given. Defaulting to  0.1000E-14.
  No threshold value for u(r) in integrations given. Defaulting to  0.1000E-05.
  No occupation type (smearing scheme) given. Defaulting to Gaussian broadening, width =  0.1000E-01 eV.
  The width will be adjusted in iteration number     2 of each s.c.f. cycle (i.e., each geometry step).
  No accuracy for occupation numbers given. Defaulting to  0.1000E-12.
  No threshold value for occupation numbers given. Defaulting to  0.0000E+00.
  No accuracy for fermi level given. Defaulting to  0.1000E-19.
  Maximum # of iterations to find E_F not set. Defaulting to  200.
  Preferred method for the eigenvalue solver ('KS_method') not specified in 'control.in'.
  Defaulting to serial version, LAPACK (via ELSI), since more k-points than CPUs available.
  Will not use alltoall communication since running on < 1024 CPUs.
  Threshold for basis singularities not set.
  Default threshold for basis singularities:  0.1000E-04
  partition_type (choice of integration weights) for integrals was not specified.
  | Using a version of the partition function of Stratmann and coworkers ('stratmann_sparse').
  | At each grid point, the set of atoms used to build the partition table is smoothly restricted to
  | only those atoms whose free-atom density would be non-zero at that grid point.
  Partitioning for Hartree potential was not defined. Using partition_type for integrals.
  | Adjusted default value of keyword multip_moments_threshold to:       0.10000000E-11
  | This value may affect high angular momentum components of the Hartree potential in periodic systems.
  Spin handling was not defined in control.in. Defaulting to unpolarized case.
  Angular momentum expansion for Kerker preconditioner not set explicitly.
  | Using default value of   0
  No explicit requirement for turning off preconditioner.
  | By default, it will be turned off when the charge convergence reaches
  | sc_accuracy_rho  =   0.141421E-05
  No special mixing parameter while Kerker preconditioner is on.
  Using default: charge_mix_param =     0.0500.
  No q(lm)/r^(l+1) cutoff set for long-range Hartree potential.
  | Using default value of  0.100000E-09 .
  | Verify using the multipole_threshold keyword.
  Defaulting to new monopole extrapolation.
  Density update method: automatic selection selected.
  Using density matrix based charge density update.
  Using density matrix based charge density update.
  Using packed matrix style: index .
  Defaulting to use time-reversal symmetry for k-point grid.
  Charge integration errors on the 3D integration grid will be compensated
  by explicit normalization and distribution of residual charges.
  Use the "compensate_multipole_errors" flag to change this behaviour.
  Set 'collect_eigenvectors' to be '.true.' for all serial calculations. This is mandatory.
  Set 'collect_eigenvectors' to be '.true.' for KS_method lapack_fast and serial.
  Found potential conflicts with setting 'use_local_index' for this calculation. Will not set it.
 
  Consistency checks for the contents of geometry.in are next.
 

  Range separation radius for Ewald summation (hartree_convergence_parameter):      4.81466675 bohr.
  Number of empty states per atom not set in control.in - providing a guess from actual geometry.
  | Total number of empty states used during s.c.f. cycle:       46
  If you use a very high smearing, use empty_states (per atom!) in control.in to increase this value.

  Structure-dependent array size parameters: 
  | Maximum number of distinct radial functions  :       39
  | Maximum number of basis functions            :      236
  | Number of Kohn-Sham states (occupied + empty):      122
------------------------------------------------------------
  After read_input_data [GB]:    406.41

  Performing system and environment tests:
  *** Environment variable OMP_NUM_THREADS is not set
  *** For performance reasons you might want to set it to 1
  | Checking for ScaLAPACK...
  | Testing pdtran()...
  | All pdtran() tests passed.
  After prepare_system [GB]:    406.26

------------------------------------------------------------
          Preparing all fixed parts of the calculation.
------------------------------------------------------------
  Determining machine precision:
    2.225073858507201E-308
  Setting up grids for atomic and cluster calculations.

  Creating wave function, potential, and density for free atoms.
  Runtime choices for atomic solver:
  | atomic solver xc        : PBE
  | compute density gradient: 1
  | compute kinetic density : F

  Species: Ti

  List of occupied orbitals and eigenvalues:
    n    l              occ      energy [Ha]    energy [eV]
    1    0           2.0000      -179.959082     -4896.9358
    2    0           2.0000       -19.727662      -536.8170
    3    0           2.0000        -2.283029       -62.1244
    4    0           2.0000        -0.148384        -4.0377
    2    1           6.0000       -16.317278      -444.0157
    3    1           6.0000        -1.409348       -38.3503
    3    2           2.0000        -0.139340        -3.7916


  Species: O

  List of occupied orbitals and eigenvalues:
    n    l              occ      energy [Ha]    energy [eV]
    1    0           2.0000       -18.926989      -515.0296
    2    0           2.0000        -0.880247       -23.9527
    2    1           4.0000        -0.331514        -9.0210


  Species: O1

  List of occupied orbitals and eigenvalues:
    n    l              occ      energy [Ha]    energy [eV]
    1    0           2.0000       -18.927378      -515.0401
    2    0           2.0000        -0.880539       -23.9607
    2    1           4.0000        -0.331811        -9.0290


  Adding cutoff potential to free-atom effective potential.
  Creating fixed part of basis set: Ionic, confined, hydrogenic.
 
  Ti                   ion:

  List of free ionic orbitals and eigenvalues:
    n    l      energy [Ha]    energy [eV]
    1    0      -180.819616     -4920.3521
    2    0       -20.608761      -560.7929
    3    0        -3.115729       -84.7833
    4    0        -0.697188       -18.9715
    2    1       -17.196209      -467.9327
    3    1        -2.231296       -60.7167
    3    2        -0.911363       -24.7995


  List of ionic basis orbitals and eigenvalues:
    n    l      energy [Ha]    energy [eV]    outer radius [A]
    4    1        -0.517739       -14.0884       4.592117
    4    0        -0.696824       -18.9615       4.536321

 
  Ti                   hydrogenic:
 
  List of hydrogenic basis orbitals: 
    n    l      effective z      eigenvalue [eV]  inner max. [A]     outer max. [A]     outer radius [A]   
    4    3         8.000000       -54.4222           1.059019           1.059019           4.267343
    3    2         2.700000       -10.7798           1.726925           1.726925           4.592117
 
 
  O                    hydrogenic:
 
  List of hydrogenic basis orbitals: 
    n    l      effective z      eigenvalue [eV]  inner max. [A]     outer max. [A]     outer radius [A]   
    2    1         1.800000       -10.9749           1.164242           1.164242           4.578029
    3    2         7.600000       -87.3180           0.624125           0.624125           3.251020
    3    0         6.400000       -61.9207           0.061167           1.081902           4.001998
 
 
  O1                   ion:

  List of free ionic orbitals and eigenvalues:
    n    l      energy [Ha]    energy [eV]
    1    0       -20.485570      -557.4407
    2    0        -2.134830       -58.0917
    2    1        -1.577627       -42.9294


  List of ionic basis orbitals and eigenvalues:
    n    l      energy [Ha]    energy [eV]    outer radius [A]
    2    1        -1.577621       -42.9293       3.541477

 
  O1                   hydrogenic:
 
  List of hydrogenic basis orbitals: 
    n    l      effective z      eigenvalue [eV]  inner max. [A]     outer max. [A]     outer radius [A]   
    2    1         1.800000       -11.0118           1.178562           1.178562           5.432602
    3    2         7.600000       -87.3182           0.624125           0.624125           3.541477
    3    0         6.400000       -61.9209           0.061167           1.081902           4.306578
    4    3        11.600000      -114.4238           0.731631           0.731631           3.585037
    3    1         6.200000       -58.1113           0.255680           1.030270           4.306578
    3    2         5.600000       -47.4081           0.847233           0.847233           4.413171
    5    4        17.600000      -168.5799           0.749740           0.749740           3.372465
    1    0         0.750000        -7.6499           0.705284           0.705284           5.366593
    4    3        10.800000       -99.1854           0.787313           0.787313           3.764702
    4    2         4.700000       -18.6841           0.758962           2.365807           5.499423
    2    0         6.800000      -157.2818           0.059689           0.406863           2.739620
    1    0        12.000000     -1959.2197           0.043971           0.043971           0.816724
    1    0        10.000000     -1360.5692           0.052821           0.052821           0.981101
    1    0         6.000000      -489.8049           0.088266           0.088266           1.561224
    2    0        10.000000      -340.1423           0.040365           0.278524           2.093567
    2    1         8.000000      -217.6911           0.265231           0.265231           2.365807
    2    1         6.000000      -122.4512           0.351348           0.351348           2.841960
    3    2         8.000000       -96.7515           0.594340           0.594340           3.455938
 
  Creating atomic-like basis functions for current effective potential.

  Species Ti                  :

  List of atomic basis orbitals and eigenvalues:
    n    l      energy [Ha]    energy [eV]    outer radius [A]
    1    0      -179.959082     -4896.9358       0.490254
    2    0       -19.727662      -536.8170       1.491292
    3    0        -2.283029       -62.1244       4.014314
    4    0        -0.148384        -4.0377       4.592117
    2    1       -16.317278      -444.0157       1.585290
    3    1        -1.409348       -38.3503       4.267343
    3    2        -0.139340        -3.7916       4.536321


  Species O                   :

  List of atomic basis orbitals and eigenvalues:
    n    l      energy [Ha]    energy [eV]    outer radius [A]
    1    0       -18.926989      -515.0296       1.415765
    2    0        -0.880247       -23.9527       4.413171
    2    1        -0.331514        -9.0210       4.522403


  Species O1                  :

  List of atomic basis orbitals and eigenvalues:
    n    l      energy [Ha]    energy [eV]    outer radius [A]
    1    0       -18.927378      -515.0401       1.415765
    2    0        -0.880539       -23.9607       5.048385
    2    1        -0.331811        -9.0290       5.301386

  Assembling full basis from fixed parts.
  | Species Ti :   atomic orbital   1 s accepted.
  | Species Ti :   atomic orbital   2 s accepted.
  | Species Ti :   atomic orbital   3 s accepted.
  | Species Ti :    ionic orbital   4 s accepted.
  | Species Ti :   atomic orbital   4 s accepted.
  | Species Ti :   atomic orbital   2 p accepted.
  | Species Ti :   atomic orbital   3 p accepted.
  | Species Ti :    ionic orbital   4 p accepted.
  | Species Ti :   atomic orbital   3 d accepted.
  | Species Ti :    hydro orbital   3 d accepted.
  | Species Ti :    hydro orbital   4 f accepted.
  | Species O :   atomic orbital   1 s accepted.
  | Species O :    hydro orbital   3 s accepted.
  | Species O :   atomic orbital   2 s accepted.
  | Species O :   atomic orbital   2 p accepted.
  | Species O :    hydro orbital   2 p accepted.
  | Species O :    hydro orbital   3 d accepted.
  | Species O1 :    hydro orbital   1 s accepted.
  | Species O1 :    hydro orbital   1 s accepted.
  | Species O1 :   atomic orbital   1 s accepted.
  | Species O1 :    hydro orbital   1 s accepted.
  | Species O1 :    hydro orbital   2 s accepted.
  | Species O1 :    hydro orbital   2 s accepted.
  | Species O1 :    hydro orbital   3 s accepted.
  | Species O1 :   atomic orbital   2 s accepted.
  | Species O1 :    hydro orbital   1 s accepted.
  | Species O1 :    hydro orbital   2 p accepted.
  | Species O1 :    hydro orbital   2 p accepted.
  | Species O1 :    ionic orbital   2 p accepted.
  | Species O1 :    hydro orbital   3 p accepted.
  | Species O1 :   atomic orbital   2 p accepted.
  | Species O1 :    hydro orbital   2 p accepted.
  | Species O1 :    hydro orbital   3 d accepted.
  | Species O1 :    hydro orbital   3 d accepted.
  | Species O1 :    hydro orbital   3 d accepted.
  | Species O1 :    hydro orbital   4 d accepted.
  | Species O1 :    hydro orbital   4 f accepted.
  | Species O1 :    hydro orbital   4 f accepted.
  | Species O1 :    hydro orbital   5 g accepted.
 
  Basis size parameters after reduction:
  | Total number of radial functions:       39
  | Total number of basis functions :      236
 
  Per-task memory consumption for arrays in subroutine allocate_ext:
  |          10.365388MB.
  Testing on-site integration grid accuracy.
  |  Species  Function  <phi|h_atom|phi> (log., in eV)  <phi|h_atom|phi> (rad., in eV)
           1        1              -4896.9357674450              -4896.9322838106
           1        2               -536.8170048508               -536.8169722776
           1        3                -62.1243896260                -62.1243889401
           1        4                 -3.2653235630                 -3.2692838824
           1        5                  6.7987747276                  6.5460721871 ***
           1        6               -444.0157161949               -444.0157165643
           1        7                -38.3503235548                -38.3503234985
           1        8                  0.2923930877                  0.2745948114
           1        9                 -3.7933400649                 -3.7959244171
           1       10                  6.3288803616                  6.2510614935 ***
           1       11                 27.8451455747                 27.8452636415
           2       12               -515.0295626295               -515.0294562869
           2       13                 15.1698434419                 15.1699322205
           2       14                -21.6038822678                -21.6039118108
           2       15                 -9.0211123393                 -9.0212703513
           2       16                  8.3047696391                  8.2854840999
           2       17                 45.8428042125                 45.8427461223
           3       18               -272.9322507263               -272.9201921991
           3       19               1665.9089384428               1665.9689460231 ***
           3       20               2095.2037268945               2095.2740317228 ***
           3       21               3047.3679718515               3047.0126722257 ***
           3       22               3234.6000205573               3231.5687072350 ***
           3       23               2428.4660356492               2422.2375592442 ***
           3       24                896.7802862158                893.3913916184 ***
           3       25               3128.2108268826               3108.2674940926 ***
           3       26                 71.8616615187                 71.1575836879 ***
           3       27                 15.4122562036                 15.4122564509
           3       28                101.7989356251                101.7989355629
           3       29                121.1064459338                121.1064460850
           3       30                271.5759585347                271.5759823152
           3       31                159.3966255928                159.3962927971
           3       32                153.6473243407                153.6504704040
           3       33                 50.7421815376                 50.7421815945
           3       34                 88.5010368311                 88.5010331057
           3       35                 82.9872957917                 82.9873669217
           3       36                 36.7418806245                 36.7419113217
           3       37                 85.4133898762                 85.4133899074
           3       38                115.1018427582                115.1018451832
           3       39                142.1023296234                142.1023296272
 * Note: Onsite integrals marked "***" above are less accurate than
 * onsite_accuracy_threshold =    0.03000 eV. Usually, this is harmless.
 * When in doubt, tighten the "radial" and/or "radial_multiplier" flags to check.

  Preparing densities etc. for the partition functions (integrals / Hartree potential).

  Preparations completed.
  max(cpu_time)          :      0.449 s.
  Wall clock time (cpu1) :      0.450 s.
------------------------------------------------------------
  After prepare_scf [GB]:    404.37

  Initializing index lists of integration centers etc. from given atomic structure:
  Mapping all atomic coordinates to central unit cell.

  Initializing the k-points
  Using symmetry for reducing the k-points
  | k-points reduced from:      136 to       69
  | Number of k-points                             :        69
  The eigenvectors in the calculations are COMPLEX.
  | K-points in task   0:         2
  | K-points in task   1:         3
  | K-points in task   2:         3
  | K-points in task   3:         3
  | K-points in task   4:         3
  | K-points in task   5:         3
  | K-points in task   6:         2
  | K-points in task   7:         2
  | K-points in task   8:         2
  | K-points in task   9:         2
  | K-points in task  10:         2
  | K-points in task  11:         2
  | K-points in task  12:         2
  | K-points in task  13:         2
  | K-points in task  14:         2
  | K-points in task  15:         2
  | K-points in task  16:         2
  | K-points in task  17:         2
  | K-points in task  18:         2
  | K-points in task  19:         2
  | K-points in task  20:         2
  | K-points in task  21:         2
  | K-points in task  22:         2
  | K-points in task  23:         2
  | K-points in task  24:         2
  | K-points in task  25:         2
  | K-points in task  26:         2
  | K-points in task  27:         2
  | K-points in task  28:         2
  | K-points in task  29:         2
  | K-points in task  30:         2
  | K-points in task  31:         2
  | Number of basis functions in the Hamiltonian integrals :      3790
  | Number of basis functions in a single unit cell        :       236
  | Number of centers in hartree potential         :      1291
  | Number of centers in hartree multipole         :       593
  | Number of centers in electron density summation:       467
  | Number of centers in basis integrals           :       491
  | Number of centers in integrals                 :       232
  | Number of centers in hamiltonian               :       643
  | Consuming        120 KiB for k_phase.
  | Number of super-cells (origin) [n_cells]                     :         675
  | Number of super-cells (after PM_index) [n_cells]             :         112
  | Number of super-cells in hamiltonian [n_cells_in_hamiltonian]:         112
  | Size of matrix packed + index [n_hamiltonian_matrix_size] :      279949
  After initialize_bc_dependent_lists [GB]:    404.37

------------------------------------------------------------
          Begin self-consistency loop: Initialization.

          Date     :  20250120, Time     :  140522.616
------------------------------------------------------------
  Available memory per node after initialize_hartree_non_periodic_ewald [GB]:    404.37
  | Estimated reciprocal-space cutoff momentum G_max:         1.91888898 bohr^-1 .
  | Reciprocal lattice points for long-range Hartree potential:     344
  Available memory per node after initialize_recip_hartree_potential [GB]:    404.37
  Available memory per node after initialize_scalapack [GB]:    404.37
  Available memory per node after aims_elsi_init_scf [GB]:    404.37
  Available memory per node after initialize_fixed_grids [GB]:    404.37
  Partitioning the integration grid into batches with parallel hashing+maxmin method.
  | Number of batches:      876
  | Maximal batch size:     170
  | Minimal batch size:      53
  | Average batch size:      87.507
  | Standard deviation of batch sizes:      33.093

  Integration load balanced across    32 MPI tasks.
  Work distribution over tasks is as follows:
  Task     0 has       2405 integration points.
  Task     1 has       2408 integration points.
  Task     2 has       2401 integration points.
  Task     3 has       2402 integration points.
  Task     4 has       2403 integration points.
  Task     5 has       2396 integration points.
  Task     6 has       2398 integration points.
  Task     7 has       2411 integration points.
  Task     8 has       2358 integration points.
  Task     9 has       2411 integration points.
  Task    10 has       2423 integration points.
  Task    11 has       2407 integration points.
  Task    12 has       2395 integration points.
  Task    13 has       2408 integration points.
  Task    14 has       2403 integration points.
  Task    15 has       2417 integration points.
  Task    16 has       2389 integration points.
  Task    17 has       2391 integration points.
  Task    18 has       2414 integration points.
  Task    19 has       2366 integration points.
  Task    20 has       2410 integration points.
  Task    21 has       2362 integration points.
  Task    22 has       2407 integration points.
  Task    23 has       2370 integration points.
  Task    24 has       2372 integration points.
  Task    25 has       2417 integration points.
  Task    26 has       2412 integration points.
  Task    27 has       2384 integration points.
  Task    28 has       2381 integration points.
  Task    29 has       2359 integration points.
  Task    30 has       2411 integration points.
  Task    31 has       2365 integration points.
  Available memory per node after partition_grid [GB]:    404.40
  Initializing partition tables, free-atom densities, potentials, etc. across the integration grid (initialize_grid_storage).
  | initialize_grid_storage: Actual outermost partition radius vs. multipole_radius_free
  | (-- VB: in principle, multipole_radius_free should be larger, hence this output)
  | Species        1: Confinement radius =              4.999999999999999 AA, multipole_radius_free =              5.002391649902235 AA.
  | Species        1: outer_partition_radius set to              5.002391649902235 AA .
  | Species        2: Confinement radius =              4.999999999999999 AA, multipole_radius_free =              5.048384829883283 AA.
  | Species        2: outer_partition_radius set to              5.048384829883283 AA .
  | Species        3: Confinement radius =              6.000000000000000 AA, multipole_radius_free =              6.064445521808699 AA.
  | Species        3: outer_partition_radius set to              6.064445521808699 AA .
  | The sparse table of interatomic distances needs       1310.64 kbyte instead of      1928.65 kbyte of memory.
  | Net number of integration points:    76656
  | of which are non-zero points    :    64382
  | Numerical average free-atom electrostatic potential    :     -5.20581701 eV
  Available memory per node after initialize_grid_storage_p1 [GB]:    404.39
  Renormalizing the initial density to the exact electron count on the 3D integration grid.
  | Initial density: Formal number of electrons (from input files) :     152.0000000000
  | Integrated number of electrons on 3D grid     :     151.9995473188
  | Charge integration error                      :      -0.0004526812
  | Normalization factor for density and gradient :       1.0000029782
  Renormalizing the free-atom superposition density to the exact electron count on the 3D integration grid.
  | Formal number of electrons (from input files) :     152.0000000000
  | Integrated number of electrons on 3D grid     :     151.9995473188
  | Charge integration error                      :      -0.0004526812
  | Normalization factor for density and gradient :       1.0000029782
  Obtaining max. number of non-zero basis functions in each batch (get_n_compute_maxes).
  | Maximal number of non-zero basis functions:      717 in task     0
  | Maximal number of non-zero basis functions:      709 in task     1
  | Maximal number of non-zero basis functions:      681 in task     2
  | Maximal number of non-zero basis functions:      688 in task     3
  | Maximal number of non-zero basis functions:      678 in task     4
  | Maximal number of non-zero basis functions:      687 in task     5
  | Maximal number of non-zero basis functions:      712 in task     6
  | Maximal number of non-zero basis functions:      675 in task     7
  | Maximal number of non-zero basis functions:      710 in task     8
  | Maximal number of non-zero basis functions:      692 in task     9
  | Maximal number of non-zero basis functions:      689 in task    10
  | Maximal number of non-zero basis functions:      694 in task    11
  | Maximal number of non-zero basis functions:      644 in task    12
  | Maximal number of non-zero basis functions:      681 in task    13
  | Maximal number of non-zero basis functions:      676 in task    14
  | Maximal number of non-zero basis functions:      676 in task    15
  | Maximal number of non-zero basis functions:      701 in task    16
  | Maximal number of non-zero basis functions:      686 in task    17
  | Maximal number of non-zero basis functions:      681 in task    18
  | Maximal number of non-zero basis functions:      689 in task    19
  | Maximal number of non-zero basis functions:      720 in task    20
  | Maximal number of non-zero basis functions:      697 in task    21
  | Maximal number of non-zero basis functions:      693 in task    22
  | Maximal number of non-zero basis functions:      667 in task    23
  | Maximal number of non-zero basis functions:      707 in task    24
  | Maximal number of non-zero basis functions:      688 in task    25
  | Maximal number of non-zero basis functions:      677 in task    26
  | Maximal number of non-zero basis functions:      667 in task    27
  | Maximal number of non-zero basis functions:      644 in task    28
  | Maximal number of non-zero basis functions:      701 in task    29
  | Maximal number of non-zero basis functions:      710 in task    30
  | Maximal number of non-zero basis functions:      700 in task    31
  Available memory per node after get_n_compute_maxes_p1 [GB]:    404.39
  Allocating        0.879 MB for KS_eigenvector_complex
  Available memory per node after allocate_matrices [GB]:    404.39
  Available memory per node after init_comm_sparse_local_matrix_scalapack [GB]:    404.39
  Integrating Hamiltonian matrix: batch-based integration.
  Time summed over all CPUs for integration: real work       14.851 s, elapsed       28.584 s => Consider using load balancing!
  Available memory per node after integrate hamiltonian matrix [GB]:    404.40
  Integrating overlap matrix.
  Time summed over all CPUs for integration: real work        3.700 s, elapsed        6.970 s
  Available memory per node after integrate ovlp matrix [GB]:    404.38
  Available memory per node after ASI_callbacks invoke [GB]:    404.38
  Available memory per node after save_overlap_scalapack [GB]:    404.38

  Updating Kohn-Sham eigenvalues and eigenvectors using ELSI and the (modified) LAPACK eigensolver.
  Singularity check in k-point 32, task 0 (analysis for other k-points/tasks may follow below):
  Overlap matrix is not singular
  | Lowest and highest eigenvalues :  0.1459E-02,  0.7521E+01
  Finished singularity check of overlap matrix
  | Time :     0.012 s
  Starting LAPACK eigensolver
  Finished Cholesky decomposition
  | Time :     0.002 s
  Finished transformation to standard eigenproblem
  | Time :     0.004 s
  Finished solving standard eigenproblem
  | Time :     0.013 s
  Finished back-transformation of eigenvectors
  | Time :     0.001 s

  Obtaining occupation numbers and electronic chemical potential using ELSI.
  | Note that, for insulating systems, the printed 'chemical potential' value is not uniquely defined.
  | It can be anywhere in the energy gap, as long as it correctly separates occupied and unoccupied states.
  | In systems with a gap, the physically relevant chemical potential is the VBM or HOMO.

  | Chemical potential (Fermi level):   -11.13420708 eV
  Available memory per node after advance_KS_solution [GB]:    404.39
  Writing Kohn-Sham eigenvalues.
  K-point:       1 at    0.000000    0.000000    0.000000 (in units of recip. lattice)

  State    Occupation    Eigenvalue [Ha]    Eigenvalue [eV]
      1       2.00000        -179.962364        -4897.02507
      2       2.00000        -179.962364        -4897.02507
      3       2.00000        -179.961228        -4896.99416
      4       2.00000        -179.961228        -4896.99416
      5       2.00000         -19.737905         -537.09573
      6       2.00000         -19.737905         -537.09573
      7       2.00000         -19.736670         -537.06212
      8       2.00000         -19.736670         -537.06212
      9       2.00000         -19.034648         -517.95913
     10       2.00000         -19.034648         -517.95913
     11       2.00000         -19.034527         -517.95582
     12       2.00000         -19.034527         -517.95582
     13       2.00000         -19.034526         -517.95581
     14       2.00000         -19.034526         -517.95581
     15       2.00000         -19.001837         -517.06629
     16       2.00000         -19.001837         -517.06629
     17       2.00000         -16.328081         -444.30969
     18       2.00000         -16.328081         -444.30969
     19       2.00000         -16.327761         -444.30097
     20       2.00000         -16.327761         -444.30097
     21       2.00000         -16.327754         -444.30080
     22       2.00000         -16.327754         -444.30080
     23       2.00000         -16.326910         -444.27782
     24       2.00000         -16.326910         -444.27782
     25       2.00000         -16.326601         -444.26941
     26       2.00000         -16.326601         -444.26941
     27       2.00000         -16.326436         -444.26493
     28       2.00000         -16.326436         -444.26493
     29       2.00000          -2.309018          -62.83157
     30       2.00000          -2.308993          -62.83089
     31       2.00000          -2.306183          -62.75443
     32       2.00000          -2.306158          -62.75374
     33       2.00000          -1.448859          -39.42546
     34       2.00000          -1.448531          -39.41652
     35       2.00000          -1.446370          -39.35772
     36       2.00000          -1.446107          -39.35058
     37       2.00000          -1.441168          -39.21618
     38       2.00000          -1.441018          -39.21209
     39       2.00000          -1.439108          -39.16013
     40       2.00000          -1.438961          -39.15612
     41       2.00000          -1.438848          -39.15304
     42       2.00000          -1.438658          -39.14787
     43       2.00000          -1.433066          -38.99571
     44       2.00000          -1.432949          -38.99252
     45       2.00000          -1.057851          -28.78559
     46       2.00000          -1.049181          -28.54967
     47       2.00000          -1.033907          -28.13404
     48       2.00000          -1.027997          -27.97323
     49       2.00000          -1.006670          -27.39289
     50       2.00000          -1.005181          -27.35236
     51       2.00000          -0.982315          -26.73016
     52       2.00000          -0.981333          -26.70343
     53       2.00000          -0.574674          -15.63769
     54       2.00000          -0.572611          -15.58154
     55       2.00000          -0.543924          -14.80093
     56       2.00000          -0.541317          -14.72997
     57       2.00000          -0.529671          -14.41309
     58       2.00000          -0.514961          -14.01279
     59       2.00000          -0.513990          -13.98637
     60       2.00000          -0.504431          -13.72627
     61       2.00000          -0.502151          -13.66421
     62       2.00000          -0.489800          -13.32813
     63       2.00000          -0.479410          -13.04541
     64       2.00000          -0.477072          -12.98178
     65       2.00000          -0.475844          -12.94837
     66       2.00000          -0.464832          -12.64872
     67       2.00000          -0.460164          -12.52170
     68       2.00000          -0.456840          -12.43124
     69       2.00000          -0.446174          -12.14101
     70       2.00000          -0.434884          -11.83380
     71       2.00000          -0.434822          -11.83210
     72       2.00000          -0.433595          -11.79873
     73       2.00000          -0.432379          -11.76562
     74       2.00000          -0.428786          -11.66787
     75       2.00000          -0.413907          -11.26299
     76       2.00000          -0.410761          -11.17737
     77       0.00000          -0.188039           -5.11680
     78       0.00000          -0.187689           -5.10727
     79       0.00000          -0.177513           -4.83037
     80       0.00000          -0.175035           -4.76294
     81       0.00000          -0.155870           -4.24145
     82       0.00000          -0.155418           -4.22914
     83       0.00000          -0.151994           -4.13596
     84       0.00000          -0.145602           -3.96203
     85       0.00000          -0.145202           -3.95114
     86       0.00000          -0.138338           -3.76436
     87       0.00000          -0.137195           -3.73326
     88       0.00000          -0.125288           -3.40926
     89       0.00000          -0.122719           -3.33937
     90       0.00000          -0.109543           -2.98082
     91       0.00000          -0.080072           -2.17887
     92       0.00000          -0.067805           -1.84506
     93       0.00000          -0.042877           -1.16674
     94       0.00000          -0.042593           -1.15901
     95       0.00000          -0.039849           -1.08434
     96       0.00000          -0.039589           -1.07728
     97       0.00000          -0.030184           -0.82135
     98       0.00000          -0.028297           -0.77000
     99       0.00000           0.032452            0.88307
    100       0.00000           0.065960            1.79486
    101       0.00000           0.085485            2.32615
    102       0.00000           0.100572            2.73672
    103       0.00000           0.102592            2.79167
    104       0.00000           0.114464            3.11472
    105       0.00000           0.172164            4.68483
    106       0.00000           0.185979            5.06074
    107       0.00000           0.236937            6.44739
    108       0.00000           0.249859            6.79902
    109       0.00000           0.316445            8.61090
    110       0.00000           0.328160            8.92970
    111       0.00000           0.330806            9.00168
    112       0.00000           0.359939            9.79443
    113       0.00000           0.376146           10.23546
    114       0.00000           0.376843           10.25441
    115       0.00000           0.409600           11.14579
    116       0.00000           0.425621           11.58175
    117       0.00000           0.471865           12.84010
    118       0.00000           0.487329           13.26089
    119       0.00000           0.498442           13.56330
    120       0.00000           0.500717           13.62521
    121       0.00000           0.524441           14.27075
    122       0.00000           0.530255           14.42897

  What follows are estimated values for band gap, HOMO, LUMO, etc.
  | They are estimated on a discrete k-point grid and not necessarily exact.
  | For converged numbers, create a DOS and/or band structure plot on a denser k-grid.

  Highest occupied state (VBM) at    -11.17737295 eV (relative to internal zero)
  | Occupation number:      2.00000000
  | K-point:       1 at    0.000000    0.000000    0.000000 (in units of recip. lattice)

  Lowest unoccupied state (CBM) at    -5.11680447 eV (relative to internal zero)
  | Occupation number:      0.00000000
  | K-point:       1 at    0.000000    0.000000    0.000000 (in units of recip. lattice)

  ESTIMATED overall HOMO-LUMO gap:      6.06056848 eV between HOMO at k-point 1 and LUMO at k-point 1
  | This appears to be a direct band gap.
  The gap value is above 0.2 eV. Unless you are using a very sparse k-point grid,
  this system is most likely an insulator or a semiconductor.
  Calculating total energy contributions from superposition of free atom densities.

  Total energy components:
  | Sum of eigenvalues            :       -2386.37205569 Ha      -64936.48756745 eV
  | XC energy correction          :        -236.41598054 Ha       -6433.20614848 eV
  | XC potential correction       :         305.66624689 Ha        8317.60177287 eV
  | Free-atom electrostatic energy:       -1711.24170909 Ha      -46565.25611843 eV
  | Hartree energy correction     :           0.00000000 Ha           0.00000000 eV
  | Entropy correction            :          -0.00000000 Ha          -0.00000000 eV
  | ---------------------------
  | Total energy                  :       -4028.36349843 Ha     -109617.34806149 eV
  | Total energy, T -> 0          :       -4028.36349843 Ha     -109617.34806149 eV  <-- do not rely on this value for anything but (periodic) metals
  | Electronic free energy        :       -4028.36349843 Ha     -109617.34806149 eV

  Derived energy quantities:
  | Kinetic energy                :        4053.23684400 Ha      110294.18623165 eV
  | Electrostatic energy          :       -7845.18436189 Ha     -213478.32814466 eV
  | Energy correction for multipole
  | error in Hartree potential    :           0.00000000 Ha           0.00000000 eV
  | Sum of eigenvalues per atom                           :       -5411.37396395 eV
  | Total energy (T->0) per atom                          :       -9134.77900512 eV  <-- do not rely on this value for anything but (periodic) metals
  | Electronic free energy per atom                       :       -9134.77900512 eV
  Initialize hartree_potential_storage
  Max. number of atoms included in rho_multipole:           12

  End scf initialization - timings             :  max(cpu_time)    wall_clock(cpu1)
  | Time for scf. initialization                :        1.569 s           1.569 s
  | Boundary condition initialization           :        0.061 s           0.061 s
  | Integration                                 :        1.135 s           1.136 s
  | Solution of K.-S. eqns.                     :        0.162 s           0.162 s
  | Grid partitioning                           :        0.080 s           0.080 s
  | Preloading free-atom quantities on grid     :        0.168 s           0.168 s
  | Free-atom superposition energy              :        0.021 s           0.021 s
  | Total energy evaluation                     :        0.001 s           0.001 s

  Partial memory accounting:
  | Current value for overall tracked memory usage:
  |   Minimum:        6.282 MB (on task  0)
  |   Maximum:        6.721 MB (on task  1)
  |   Average:        6.351 MB
  | Peak value for overall tracked memory usage:
  |   Minimum:       16.978 MB (on task 12 after allocating zora_vector2)
  |   Maximum:       18.849 MB (on task  1 after allocating zora_vector2)
  |   Average:       18.026 MB
  | Largest tracked array allocation so far:
  |   Minimum:        3.164 MB (hamiltonian_shell on task 12)
  |   Maximum:        3.955 MB (hamiltonian_shell on task 20)
  |   Average:        3.621 MB
  Note:  These values currently only include a subset of arrays which are explicitly tracked.
  The "true" memory usage will be greater.
------------------------------------------------------------
  Available memory after initialize_scf [GB]:    404.39
  Available memory after allocating mixing [GB]:    404.39
  Evaluating new KS density using the density matrix
  Evaluating density matrix
  Time summed over all CPUs for getting density from density matrix: real work       12.008 s, elapsed       24.170 s
  Integration grid: deviation in total charge (<rho> - N_e) =  -7.560175E-12

  Time for density update prior                :  max(cpu_time)    wall_clock(cpu1)
  | self-consistency iterative process          :        0.771 s           0.770 s
  Available memory before start of SCF loop [GB]:    404.41

------------------------------------------------------------
          Begin self-consistency iteration #    1

  Date     :  20250120, Time     :  140524.958
------------------------------------------------------------
  Pulay mixing of updated and previous charge densities.
  Available memory per node after mixing [GB]:    404.41
  Renormalizing the density to the exact electron count on the 3D integration grid.
  | Formal number of electrons (from input files) :     152.0000000000
  | Integrated number of electrons on 3D grid     :     151.9985729404
  | Charge integration error                      :      -0.0014270596
  | Normalization factor for density and gradient :       1.0000093886

  Evaluating partitioned Hartree potential by multipole expansion.
  | Original multipole sum: apparent total charge =  -0.169724E-13
  | Sum of charges compensated after spline to logarithmic grids =   0.116754E-04
  | Analytical far-field extrapolation by fixed multipoles:
  | Hartree multipole sum: apparent total charge =  -0.168925E-13
  Summing up the Hartree potential.
  Time summed over all CPUs for potential: real work        0.061 s, elapsed        0.108 s
  | RMS charge density error from multipole expansion :   0.108283E-02
  | Average real-space part of the electrostatic potential :      0.01713484 eV

  Integrating Hamiltonian matrix: batch-based integration.
  Time summed over all CPUs for integration: real work       12.723 s, elapsed       23.130 s => Consider using load balancing!

  Updating Kohn-Sham eigenvalues and eigenvectors using ELSI and the (modified) LAPACK eigensolver.
  Starting LAPACK eigensolver
  Finished Cholesky decomposition
  | Time :     0.003 s
  Finished transformation to standard eigenproblem
  | Time :     0.005 s
  Finished solving standard eigenproblem
  | Time :     0.014 s
  Finished back-transformation of eigenvectors
  | Time :     0.001 s

  Obtaining occupation numbers and electronic chemical potential using ELSI.
  | Note that, for insulating systems, the printed 'chemical potential' value is not uniquely defined.
  | It can be anywhere in the energy gap, as long as it correctly separates occupied and unoccupied states.
  | In systems with a gap, the physically relevant chemical potential is the VBM or HOMO.

  | Chemical potential (Fermi level):   -10.69107930 eV
  Writing Kohn-Sham eigenvalues.
  K-point:       1 at    0.000000    0.000000    0.000000 (in units of recip. lattice)

  State    Occupation    Eigenvalue [Ha]    Eigenvalue [eV]
      1       2.00000        -179.985679        -4897.65953
      2       2.00000        -179.985679        -4897.65952
      3       2.00000        -179.978762        -4897.47131
      4       2.00000        -179.978762        -4897.47130
      5       2.00000         -19.760820         -537.71926
      6       2.00000         -19.760820         -537.71926
      7       2.00000         -19.754334         -537.54277
      8       2.00000         -19.754334         -537.54277
      9       2.00000         -19.004510         -517.13902
     10       2.00000         -19.004509         -517.13901
     11       2.00000         -19.004509         -517.13901
     12       2.00000         -19.004509         -517.13901
     13       2.00000         -19.002956         -517.09674
     14       2.00000         -19.002956         -517.09674
     15       2.00000         -18.965037         -516.06493
     16       2.00000         -18.965037         -516.06492
     17       2.00000         -16.351099         -444.93604
     18       2.00000         -16.351099         -444.93604
     19       2.00000         -16.350833         -444.92880
     20       2.00000         -16.350833         -444.92880
     21       2.00000         -16.350785         -444.92750
     22       2.00000         -16.350785         -444.92749
     23       2.00000         -16.344528         -444.75724
     24       2.00000         -16.344528         -444.75724
     25       2.00000         -16.344302         -444.75108
     26       2.00000         -16.344302         -444.75108
     27       2.00000         -16.344259         -444.74992
     28       2.00000         -16.344259         -444.74991
     29       2.00000          -2.321996          -63.18471
     30       2.00000          -2.321977          -63.18422
     31       2.00000          -2.317975          -63.07530
     32       2.00000          -2.317957          -63.07483
     33       2.00000          -1.460654          -39.74643
     34       2.00000          -1.460407          -39.73970
     35       2.00000          -1.454359          -39.57513
     36       2.00000          -1.453958          -39.56420
     37       2.00000          -1.453544          -39.55295
     38       2.00000          -1.453486          -39.55137
     39       2.00000          -1.448780          -39.42332
     40       2.00000          -1.448716          -39.42157
     41       2.00000          -1.448661          -39.42008
     42       2.00000          -1.448658          -39.42000
     43       2.00000          -1.447813          -39.39699
     44       2.00000          -1.447541          -39.38960
     45       2.00000          -1.045449          -28.44811
     46       2.00000          -1.036962          -28.21717
     47       2.00000          -1.019505          -27.74215
     48       2.00000          -1.013933          -27.59052
     49       2.00000          -0.994849          -27.07122
     50       2.00000          -0.993288          -27.02874
     51       2.00000          -0.965205          -26.26456
     52       2.00000          -0.964234          -26.23815
     53       2.00000          -0.565706          -15.39364
     54       2.00000          -0.563842          -15.34292
     55       2.00000          -0.532479          -14.48949
     56       2.00000          -0.530102          -14.42482
     57       2.00000          -0.519069          -14.12458
     58       2.00000          -0.505599          -13.75804
     59       2.00000          -0.504605          -13.73099
     60       2.00000          -0.491914          -13.38567
     61       2.00000          -0.489492          -13.31975
     62       2.00000          -0.477582          -12.99567
[...]

  State    Occupation    Eigenvalue [Ha]    Eigenvalue [eV]
      1       2.00000        -178.946683        -4869.38700
      2       2.00000        -178.946683        -4869.38699
      3       2.00000        -178.898287        -4868.07006
      4       2.00000        -178.898286        -4868.07004
      5       2.00000         -19.836934         -539.79044
      6       2.00000         -19.836934         -539.79043
      7       2.00000         -19.792487         -538.58097
      8       2.00000         -19.792486         -538.58095
      9       2.00000         -18.829564         -512.37851
     10       2.00000         -18.829564         -512.37850
     11       2.00000         -18.829564         -512.37849
     12       2.00000         -18.829563         -512.37848
     13       2.00000         -18.816505         -512.02314
     14       2.00000         -18.816504         -512.02314
     15       2.00000         -18.775668         -510.91191
     16       2.00000         -18.775667         -510.91190
     17       2.00000         -16.429922         -447.08092
     18       2.00000         -16.429922         -447.08091
     19       2.00000         -16.429449         -447.06805
     20       2.00000         -16.429449         -447.06805
     21       2.00000         -16.429241         -447.06241
     22       2.00000         -16.429241         -447.06240
     23       2.00000         -16.385858         -445.88190
     24       2.00000         -16.385858         -445.88188
     25       2.00000         -16.384486         -445.84456
     26       2.00000         -16.384486         -445.84454
     27       2.00000         -16.383831         -445.82672
     28       2.00000         -16.383830         -445.82670
     29       2.00000          -2.392230          -65.09589
     30       2.00000          -2.392228          -65.09584
     31       2.00000          -2.347354          -63.87476
     32       2.00000          -2.347353          -63.87473
     33       2.00000          -1.519404          -41.34509
     34       2.00000          -1.519345          -41.34349
     35       2.00000          -1.518998          -41.33404
     36       2.00000          -1.518941          -41.33250
     37       2.00000          -1.513553          -41.18587
     38       2.00000          -1.513548          -41.18573
     39       2.00000          -1.477747          -40.21154
     40       2.00000          -1.477728          -40.21102
     41       2.00000          -1.474363          -40.11946
     42       2.00000          -1.474343          -40.11891
     43       2.00000          -1.467293          -39.92707
     44       2.00000          -1.467292          -39.92704
     45       2.00000          -0.945685          -25.73339
     46       2.00000          -0.938010          -25.52455
     47       2.00000          -0.905199          -24.63171
     48       2.00000          -0.901458          -24.52993
     49       2.00000          -0.895730          -24.37407
     50       2.00000          -0.893676          -24.31817
     51       2.00000          -0.835477          -22.73448
     52       2.00000          -0.834491          -22.70766
     53       2.00000          -0.492525          -13.40228
     54       2.00000          -0.491661          -13.37877
     55       2.00000          -0.442778          -12.04861
     56       2.00000          -0.441686          -12.01890
     57       2.00000          -0.440306          -11.98134
     58       2.00000          -0.434670          -11.82798
     59       2.00000          -0.433605          -11.79899
     60       2.00000          -0.397462          -10.81548
     61       2.00000          -0.394431          -10.73302
     62       2.00000          -0.391058          -10.64122
     63       2.00000          -0.377037          -10.25971
     64       2.00000          -0.372821          -10.14499
     65       2.00000          -0.366609           -9.97595
     66       2.00000          -0.362818           -9.87278
     67       2.00000          -0.345685           -9.40656
     68       2.00000          -0.342877           -9.33017
     69       2.00000          -0.332186           -9.03924
     70       2.00000          -0.311725           -8.48247
     71       2.00000          -0.308124           -8.38448
     72       2.00000          -0.305652           -8.31723
     73       2.00000          -0.293916           -7.99787
     74       2.00000          -0.290459           -7.90378
     75       2.00000          -0.282554           -7.68869
     76       2.00000          -0.278607           -7.58129
     77       0.00000          -0.224101           -6.09809
     78       0.00000          -0.223105           -6.07100
     79       0.00000          -0.204833           -5.57379
     80       0.00000          -0.204446           -5.56327
     81       0.00000          -0.189340           -5.15220
     82       0.00000          -0.180956           -4.92407
     83       0.00000          -0.177362           -4.82627
     84       0.00000          -0.173243           -4.71419
     85       0.00000          -0.172978           -4.70696
     86       0.00000          -0.171012           -4.65347
     87       0.00000          -0.156962           -4.27115
     88       0.00000          -0.141630           -3.85396
     89       0.00000          -0.124714           -3.39365
     90       0.00000          -0.117321           -3.19247
     91       0.00000          -0.072041           -1.96034
     92       0.00000          -0.065908           -1.79344
     93       0.00000          -0.056591           -1.53992
     94       0.00000          -0.056393           -1.53452
     95       0.00000          -0.022399           -0.60952
     96       0.00000          -0.021464           -0.58406
     97       0.00000          -0.021246           -0.57814
     98       0.00000          -0.012913           -0.35138
     99       0.00000           0.083992            2.28554
    100       0.00000           0.132399            3.60276
    101       0.00000           0.135950            3.69939
    102       0.00000           0.147493            4.01348
    103       0.00000           0.156179            4.24986
    104       0.00000           0.177404            4.82741
    105       0.00000           0.221825            6.03615
    106       0.00000           0.241715            6.57741
    107       0.00000           0.271012            7.37462
    108       0.00000           0.289817            7.88632
    109       0.00000           0.358130            9.74521
    110       0.00000           0.385124           10.47975
    111       0.00000           0.390787           10.63385
    112       0.00000           0.406888           11.07199
    113       0.00000           0.407404           11.08603
    114       0.00000           0.423899           11.53489
    115       0.00000           0.432035           11.75628
    116       0.00000           0.450108           12.24807
    117       0.00000           0.506968           13.79530
    118       0.00000           0.519785           14.14406
    119       0.00000           0.522065           14.20612
    120       0.00000           0.522822           14.22671
    121       0.00000           0.546291           14.86534
    122       0.00000           0.552897           15.04511

  What follows are estimated values for band gap, HOMO, LUMO, etc.
  | They are estimated on a discrete k-point grid and not necessarily exact.
  | For converged numbers, create a DOS and/or band structure plot on a denser k-grid.

  Highest occupied state (VBM) at     -7.58128954 eV (relative to internal zero)
  | Occupation number:      2.00000000
  | K-point:       1 at    0.000000    0.000000    0.000000 (in units of recip. lattice)

  Lowest unoccupied state (CBM) at    -6.09809023 eV (relative to internal zero)
  | Occupation number:      0.00000000
  | K-point:       1 at    0.000000    0.000000    0.000000 (in units of recip. lattice)

  ESTIMATED overall HOMO-LUMO gap:      1.48319931 eV between HOMO at k-point 1 and LUMO at k-point 1
  | This appears to be a direct band gap.
  The gap value is above 0.2 eV. Unless you are using a very sparse k-point grid,
  this system is most likely an insulator or a semiconductor.

  Total energy components:
  | Sum of eigenvalues            :       -2371.81225424 Ha      -64540.29521205 eV
  | XC energy correction          :        -237.08387472 Ha       -6451.38047374 eV
  | XC potential correction       :         306.52158680 Ha        8340.87675586 eV
  | Free-atom electrostatic energy:       -1711.24170909 Ha      -46565.25611843 eV
  | Hartree energy correction     :          -4.21292861 Ha        -114.63962020 eV
  | Entropy correction            :          -0.00000000 Ha          -0.00000000 eV
  | ---------------------------
  | Total energy                  :       -4017.82917986 Ha     -109330.69466856 eV
  | Total energy, T -> 0          :       -4017.82917986 Ha     -109330.69466856 eV  <-- do not rely on this value for anything but (periodic) metals
  | Electronic free energy        :       -4017.82917986 Ha     -109330.69466856 eV

  Derived energy quantities:
  | Kinetic energy                :        4064.71910011 Ha      110606.63431755 eV
  | Electrostatic energy          :       -7845.46440525 Ha     -213485.94851236 eV
  | Energy correction for multipole
  | error in Hartree potential    :           0.03413194 Ha           0.92877732 eV
  | Sum of eigenvalues per atom                           :       -5378.35793434 eV
  | Total energy (T->0) per atom                          :       -9110.89122238 eV  <-- do not rely on this value for anything but (periodic) metals
  | Electronic free energy per atom                       :       -9110.89122238 eV
  End evaluation of scaled ZORA corrections.
  | Time for scaled ZORA corrections            :        1.290 s           1.291 s
------------------------------------------------------------

  Energy and forces in a compact form:
  | Total energy uncorrected      :         -0.109330694668556E+06 eV
  | Total energy corrected        :         -0.109330694668556E+06 eV  <-- do not rely on this value for anything but (periodic) metals
  | Electronic free energy        :         -0.109330694668556E+06 eV

  ------------------------------------ 
  Start decomposition of the XC Energy 
  ------------------------------------ 
  X and C from original XC functional choice 
  Hartree-Fock Energy :          0.000000000 Ha              0.000000000 eV
  X Energy            :       -231.103824344 Ha          -6288.655023635 eV
  C Energy            :         -5.980050376 Ha           -162.725450105 eV
  XC Energy w/o HF    :       -237.083874719 Ha          -6451.380473740 eV
  Total XC Energy     :       -237.083874719 Ha          -6451.380473740 eV
  ------------------------------------ 
  LDA X and C from self-consistent density 
  X Energy LDA        :       -214.469503337 Ha          -5836.012118826 eV
  C Energy LDA        :        -11.726981139 Ha           -319.107392792 eV
  ------------------------------------ 
  End decomposition of the XC Energy 
  ------------------------------------ 

------------------------------------------------------------

  ------------------------------------------------------------
                   Starting Mulliken Analysis
  ------------------------------------------------------------

  Performing Mulliken charge analysis on all atoms.
  Full analysis will be written to separate file 'Mulliken.out'.
  Summary of the per-atom charge analysis:
  |
  |  atom       electrons          charge             l=0             l=1             l=2             l=3             l=4
  |     1        8.489188       -0.489188        3.880919        4.597407        0.010862
  |     2        8.640366       -0.640366        3.857339        4.772490        0.010536
  |     3       20.746175        1.253825        6.098201       12.425722        2.101425        0.120828
  |     4       20.899941        1.100059        6.043121       12.505014        2.207833        0.143973
  |     5        8.640366       -0.640366        3.857339        4.772491        0.010536
  |     6        8.583964       -0.583964        3.840075        4.733248        0.010641
  |     7        8.583964       -0.583964        3.840075        4.733248        0.010641
  |     8        8.640366       -0.640366        3.857339        4.772491        0.010536
  |     9       20.746173        1.253827        6.098200       12.425722        2.101424        0.120828
  |    10       20.899941        1.100059        6.043121       12.505013        2.207833        0.143973
  |    11        8.640367       -0.640367        3.857339        4.772491        0.010536
  |    12        8.489187       -0.489187        3.880919        4.597405        0.010862
  |
  | Total      152.000000        0.000000
 
  Writing Mulliken decomposition to disk ...

  Mulliken analysis                                       :  max(cpu_time)    wall_clock(cpu1)
  | Time for Mulliken analysis                            :          0.817               0.824
  | Total time for Mulliken analysis                      :          0.817               0.824
------------------------------------------------------------

------------------------------------------------------------------------------
  Final output of selected total energy values:

  The following output summarizes some interesting total energy values
  at the end of a run (AFTER all relaxation, molecular dynamics, etc.).

  | Total energy of the DFT / Hartree-Fock s.c.f. calculation      :        -109330.694668556 eV
  | Final zero-broadening corrected energy (caution - metals only) :        -109330.694668556 eV
  | For reference only, the value of 1 Hartree used in FHI-aims is :             27.211384500 eV
  | For reference only, the overall average (free atom contribution
  | + realspace contribution) of the electrostatic potential after
  | s.c.f. convergence is                                          :             -4.996574884 eV

  Before relying on these values, please be sure to understand exactly which
  total energy value is referred to by a given number. Different objects may
  all carry the same name 'total energy'. Definitions:

  Total energy of the DFT / Hartree-Fock s.c.f. calculation:
  | Note that this energy does not include ANY quantities calculated after the
  | s.c.f. cycle, in particular not ANY RPA, MP2, etc. many-body perturbation terms.
  | Scalar relativistic effects have been included in the 'scaled ZORA' approximation.

  Final zero-broadening corrected energy:
  | For metallic systems only, a broadening of the occupation numbers at the Fermi
  | level can be extrapolated back to zero broadening by an electron-gas inspired
  | formula. For all systems that are not real metals, this value can be
  | meaningless and should be avoided.

------------------------------------------------------------------------------
  Methods described in the following list of references were used in this FHI-aims run.
  If you publish the results, please make sure to cite these reference if they apply.
  FHI-aims is an academic code, and for our developers (often, Ph.D. students
  and postdocs), scientific credit in the community is essential.
  Thank you for helping us!

  For any use of FHI-aims, please cite:

    Volker Blum, Ralf Gehrke, Felix Hanke, Paula Havu, Ville Havu,
    Xinguo Ren, Karsten Reuter, and Matthias Scheffler
    'Ab initio molecular simulations with numeric atom-centered orbitals'
    Computer Physics Communications 180, 2175-2196 (2009)
    http://doi.org/10.1016/j.cpc.2009.06.022


  The provided symmetry information was generated with SPGlib:

    Atsushi Togo, Yusuke Seto, Dimitar Pashov
    SPGlib 1.7.3 obtained from http://spglib.sourceforge.net
    Licence: New BSD license
    Copyright (C) 2008 Atsushi Togo


  The ELSI infrastructure was used in your run to solve the Kohn-Sham electronic structure.
  Please check out https://wordpress.elsi-interchange.org to learn more.
  If scalability is important for your project, please acknowledge ELSI by citing:

    V. W-z. Yu, F. Corsetti, A. Garcia, W. P. Huhn, M. Jacquelin, W. Jia,
    B. Lange, L. Lin, J. Lu, W. Mi, A. Seifitokaldani, A. Vazquez-Mayagoitia,
    C. Yang, H. Yang, and V. Blum
    'ELSI: A unified software interface for Kohn-Sham electronic structure solvers'
    Computer Physics Communications 222, 267-285 (2018).
    http://doi.org/10.1016/j.cpc.2017.09.007


  For the real-space grid partitioning and parallelization used in this calculation, please cite:

    Ville Havu, Volker Blum, Paula Havu, and Matthias Scheffler,
    'Efficient O(N) integration for all-electron electronic structure calculation'
    'using numerically tabulated basis functions'
    Journal of Computational Physics 228, 8367-8379 (2009).
    http://doi.org/10.1016/j.jcp.2009.08.008

  Of course, there are many other important community references, e.g., those cited in the
  above references. Our list is limited to references that describe implementations in the
  FHI-aims code. The reason is purely practical (length of this list) - please credit others as well.

------------------------------------------------------------
          Leaving FHI-aims.
          Date     :  20250120, Time     :  140613.823

          Computational steps:
          | Number of self-consistency cycles          :           22
          | Number of SCF (re)initializations          :            1

          Detailed time accounting                     :  max(cpu_time)    wall_clock(cpu1)
          | Total time                                  :       51.807 s          51.816 s
          | Preparation time                            :        0.449 s           0.450 s
          | Boundary condition initalization            :        0.061 s           0.061 s
          | Grid partitioning                           :        0.080 s           0.080 s
          | Preloading free-atom quantities on grid     :        0.168 s           0.168 s
          | Free-atom superposition energy              :        0.021 s           0.021 s
          | Total time for integrations                 :       19.622 s          19.621 s
          | Total time for solution of K.-S. equations  :        2.621 s           2.622 s
          | Total time for density update               :       17.235 s          17.235 s
          | Total time for mixing & preconditioning     :        6.147 s           6.148 s
          | Total time for Hartree multipole update     :        0.077 s           0.078 s
          | Total time for Hartree multipole sum        :        3.041 s           3.041 s
          | Total time for total energy evaluation      :        0.012 s           0.015 s
          | Total time for scaled ZORA corrections      :        1.290 s           1.291 s
          | Total time for Mulliken analysis            :        0.824 s           0.824 s

          Partial memory accounting:
          | Residual value for overall tracked memory usage across tasks:     0.000000 MB (should be 0.000000 MB)
          | Peak values for overall tracked memory usage:
          |   Minimum:       18.305 MB (on task 28 after allocating zora_vector2)
          |   Maximum:       20.191 MB (on task  1 after allocating zora_vector2)
          |   Average:       19.361 MB
          | Largest tracked array allocation:
          |   Minimum:        3.164 MB (hamiltonian_shell on task 12)
          |   Maximum:        3.955 MB (hamiltonian_shell on task 20)
          |   Average:        3.621 MB
          Note:  These values currently only include a subset of arrays which are explicitly tracked.
          The "true" memory usage will be greater.

          Have a nice day.
------------------------------------------------------------
