------------------------------------------------------------
          Invoking FHI-aims ...

          When using FHI-aims, please cite the following reference:

            Volker Blum, Ralf Gehrke, Felix Hanke, Paula Havu,
            Ville Havu, Xinguo Ren, Karsten Reuter, and Matthias Scheffler,
            'Ab Initio Molecular Simulations with Numeric Atom-Centered Orbitals',
            Computer Physics Communications 180, 2175-2196 (2009)

          In addition, many other developments in FHI-aims are likely important for
          your particular application. If so, please cite them. A partial list of references
          is written at the end of this file. Thank you for giving credit to the authors
          of these developments.

          For general information about FHI-aims please find us at

            https://fhi-aims.org

          Online tutorials can be found at

            https://fhi-aims-club.gitlab.io/tutorials/tutorials-overview/

          For any questions about FHI-aims, please visit our slack channel at

            https://fhi-aims.slack.com

          and our main development and support site at

            https://aims-git.rz-berlin.mpg.de .

          The latter site, in particular, has a wiki to collect information, as well
          as an issue tracker to log discussions, suggest improvements, and report issues
          or bugs. https://aims-git.rz-berlin.mpg.de is also the main development site
          of the project and all new and updated code versions can be obtained there.
          Please send an email to aims-coordinators@fhi-berlin.mpg.de and we will add
          you to these sites. They are for you and everyone is welcome there.

------------------------------------------------------------



  Date     :  20240708, Time     :  013720.315
  Time zero on CPU 1             :   0.379276000000000E+00  s.
  Internal wall clock time zero  :           489634640.315  s.

  FHI-aims created a unique identifier for this run for later identification
  aims_uuid : E4A9D7D2-937F-40AE-AD66-B18719003B72

  Build configuration of the current instance of FHI-aims
  -------------------------------------------------------
  FHI-aims version      : 240605
  Commit number         : b001b2e18
  CMake host system     : Linux-6.5.0-41-generic
  CMake version         : 3.22.1
  Fortran compiler      : /opt/intel/oneapi/mpi/2021.12/bin/mpiifort (IntelLLVM) version 2024.1.0
  Fortran compiler flags: -fc=ifx -O3 -ip -fp-model precise
  C compiler            : /opt/intel/oneapi/mpi/2021.12/bin/mpiicc (IntelLLVM) version 2024.1.0
  C compiler flags      : -cc=icx -O3 -ip -fp-model precise -std=gnu99
  C++ compiler          : /opt/intel/oneapi/mpi/2021.12/bin/mpiicpc (IntelLLVM) version 2024.1.0
  C++ compiler flags    : -cxx=icpx -O3 -ip -fp-model precise -std=c++11
  HIP compiler          :
  HIP compiler flags    :
  HIP GPU arch          :
  Using MPI
  Using ScaLAPACK
  Using LibXC
  Using i-PI
  Using RLSY
  Linking against: /opt/intel/oneapi/mkl/2024.1/lib/intel64/libmkl_intel_lp64.so
                   /opt/intel/oneapi/mkl/2024.1/lib/intel64/libmkl_sequential.so
                   /opt/intel/oneapi/mkl/2024.1/lib/intel64/libmkl_core.so
                   /opt/intel/oneapi/mkl/2024.1/lib/intel64/libmkl_blacs_intelmpi_lp64.so
                   /opt/intel/oneapi/mkl/2024.1/lib/intel64/libmkl_scalapack_lp64.so
                   /opt/intel/oneapi/mkl/2024.1/lib/intel64/libmkl_core.so

  Using       24 parallel tasks.
  Task        0 on host RSL-arvutus reporting.
  Task        1 on host RSL-arvutus reporting.
  Task        2 on host RSL-arvutus reporting.
  Task        3 on host RSL-arvutus reporting.
  Task        4 on host RSL-arvutus reporting.
  Task        5 on host RSL-arvutus reporting.
  Task        6 on host RSL-arvutus reporting.
  Task        7 on host RSL-arvutus reporting.
  Task        8 on host RSL-arvutus reporting.
  Task        9 on host RSL-arvutus reporting.
  Task       10 on host RSL-arvutus reporting.
  Task       11 on host RSL-arvutus reporting.
  Task       12 on host RSL-arvutus reporting.
  Task       13 on host RSL-arvutus reporting.
  Task       14 on host RSL-arvutus reporting.
  Task       15 on host RSL-arvutus reporting.
  Task       16 on host RSL-arvutus reporting.
  Task       17 on host RSL-arvutus reporting.
  Task       18 on host RSL-arvutus reporting.
  Task       19 on host RSL-arvutus reporting.
  Task       20 on host RSL-arvutus reporting.
  Task       21 on host RSL-arvutus reporting.
  Task       22 on host RSL-arvutus reporting.
  Task       23 on host RSL-arvutus reporting.

  Memory overcommitment is allowed on your operating system.

  Obtaining array dimensions for all initial allocations:
  
  -----------------------------------------------------------------------
  Parsing control.in (first pass over file, find array dimensions only).
  The contents of control.in will be repeated verbatim below
  unless switched off by setting 'verbatim_writeout .false.' .
  in the first line of control.in .
  -----------------------------------------------------------------------
  
  xc              pbe
  relativistic    atomic_zora scalar
  k_grid          8 8 8
  relax_geometry  bfgs 5e-3
  relax_unit_cell full
  ################################################################################
  #
  #  FHI-aims code project
  #  Volker Blum, Fritz Haber Institute Berlin, 2009
  #
  #  Suggested "tight" defaults for Ti atom (to be pasted into control.in file)
  #
  ################################################################################
    species        Ti
  #     global species definitions
      nucleus             22
      mass                47.867
  #
      l_hartree           6
  #
      cut_pot             4.0          2.0  1.0
      basis_dep_cutoff    1e-4
  #
      radial_base         48 7.0
      radial_multiplier   2
      angular_grids       specified
        division   0.3263   50
        division   0.7218  110
        division   1.0925  194
        division   1.3188  302
        division   1.4940  434
  #      division   1.6583  590
  #      division   1.8821  770
  #      division   2.0961  974
  #      division   3.3854 1202
  #      outer_grid  974
        outer_grid  434
  ################################################################################
  #
  #  Definition of "minimal" basis
  #
  ################################################################################
  #     valence basis states
      valence      4  s   2.
      valence      3  p   6.
      valence      3  d   2.
  #     ion occupancy
      ion_occ      4  s   1.
      ion_occ      3  p   6.
      ion_occ      3  d   1.
  ################################################################################
  #
  #  Suggested additional basis functions. For production calculations,
  #  uncomment them one after another (the most important basis functions are
  #  listed first).
  #
  #  Constructed for dimers: 1.6 A, 1.85 A, 2.5 A, 3.25 A, 4.25 A
  #
  ################################################################################
  #  "First tier" - improvements: -396.25 meV to -19.41 meV
       hydro 4 f 8
       hydro 3 d 2.7
       ionic 4 p auto
       hydro 5 g 11.6
       ionic 4 s auto
  #  "Second tier" - improvements: -16.30 meV to -2.03 meV
  #     hydro 3 d 4.4
  #     hydro 6 h 16
  #     hydro 4 f 9.4
  #     hydro 4 p 4.5
  #     hydro 1 s 0.5
  #  "Third tier" - improvements: -6.28 meV to -0.37 meV
  #     hydro 4 d 6.4
  #     hydro 4 f 10
  #     hydro 5 g 12
  #     hydro 2 p 1.7
  #     hydro 6 h 16.4
  #     hydro 4 s 3.8
  #  Further basis functions: -0.45 meV and smaller improvements
  #     hydro 3 d 8.8
  #     hydro 5 p 18
  #     hydro 4 f 22.4
  #     hydro 5 f 7.2  # -0.16 meV
  #     hydro 3 d 2.1  # -0.11 meV
  #     hydro 5 g 7.4  # -0.09 meV
  ################################################################################
  #
  #  FHI-aims code project
  #  Volker Blum, Fritz Haber Institute Berlin, 2009
  #
  #  Suggested "tight" defaults for O atom (to be pasted into control.in file)
  #
  ################################################################################
    species        O
  #     global species definitions
      nucleus             8
      mass                15.9994
  #
      l_hartree           6
  #
      cut_pot             4.0  2.0  1.0
      basis_dep_cutoff    1e-4
  #
      radial_base         36 7.0
      radial_multiplier   2
       angular_grids specified
        division   0.1817   50
        division   0.3417  110
        division   0.4949  194
        division   0.6251  302
        division   0.8014  434
  #      division   0.8507  590
  #      division   0.8762  770
  #      division   0.9023  974
  #      division   1.2339 1202
  #      outer_grid 974
        outer_grid  434
  ################################################################################
  #
  #  Definition of "minimal" basis
  #
  ################################################################################
  #     valence basis states
      valence      2  s   2.
      valence      2  p   4.
  #     ion occupancy
      ion_occ      2  s   1.
      ion_occ      2  p   3.
  ################################################################################
  #
  #  Suggested additional basis functions. For production calculations,
  #  uncomment them one after another (the most important basis functions are
  #  listed first).
  #
  #  Constructed for dimers: 1.0 A, 1.208 A, 1.5 A, 2.0 A, 3.0 A
  #
  ################################################################################
  #  "First tier" - improvements: -699.05 meV to -159.38 meV
       hydro 2 p 1.8
       hydro 3 d 7.6
       hydro 3 s 6.4
  #  "Second tier" - improvements: -49.91 meV to -5.39 meV
       hydro 4 f 11.6
       hydro 3 p 6.2
       hydro 3 d 5.6
       hydro 5 g 17.6
       hydro 1 s 0.75
  #  "Third tier" - improvements: -2.83 meV to -0.50 meV
  #     ionic 2 p auto
  #     hydro 4 f 10.8
  #     hydro 4 d 4.7
  #     hydro 2 s 6.8
  #  "Fourth tier" - improvements: -0.40 meV to -0.12 meV
  #     hydro 3 p 5
  #     hydro 3 s 3.3
  #     hydro 5 g 15.6
  #     hydro 4 f 17.6
  #     hydro 4 d 14
  # Further basis functions - -0.08 meV and below
  #     hydro 3 s 2.1
  #     hydro 4 d 11.6
  #     hydro 3 p 16
  #     hydro 2 s 17.2
  ################################################################################
  #
  # For methods that use the localized form of the "resolution of identity" for
  # the two-electron Coulomb operator (RI_method LVL), particularly Hartree-Fock and
  # hybrid density functional calculations, the highest accuracy can be obtained by
  # uncommenting the line beginning with "for_aux"  below, thus adding an extra g radial
  # function to the construction of the product basis set for the expansion.
  # See Ref. New J. Phys. 17, 093020 (2015) for more information, particularly Figs. 1 and 6.
  #
  ################################################################################
  #
  # for_aux hydro 5 g 6.0
  
  -----------------------------------------------------------------------
  Completed first pass over input file control.in .
  -----------------------------------------------------------------------
  
  
  -----------------------------------------------------------------------
  Parsing geometry.in (first pass over file, find array dimensions only).
  The contents of geometry.in will be repeated verbatim below
  unless switched off by setting 'verbatim_writeout .false.' .
  in the first line of geometry.in .
  -----------------------------------------------------------------------
  
  lattice_vector 4.594000 0.000000 0.000000
  lattice_vector 0.000000 4.594000 0.000000
  lattice_vector 0.000000 0.000000 2.958000
  
  atom_frac 0.000000 0.000000 0.000000 Ti
  atom_frac 0.500000 0.500000 0.500000 Ti
  atom_frac 0.305000 0.305000 0.000000 O
  atom_frac 0.695000 0.695000 0.000000 O
  atom_frac 0.305000 0.695000 0.500000 O
  atom_frac 0.695000 0.305000 0.500000 O
  
  -----------------------------------------------------------------------
  Completed first pass over input file geometry.in .
  -----------------------------------------------------------------------
  

  Basic array size parameters:
  | Number of species                 :        2
  | Number of atoms                   :        6
  | Number of lattice vectors         :        3
  | Max. basis fn. angular momentum   :        4
  | Max. atomic/ionic basis occupied n:        4
  | Max. number of basis fn. types    :        3
  | Max. radial fns per species/type  :        8
  | Max. logarithmic grid size        :     1383
  | Max. radial integration grid size :       97
  | Max. angular integration grid size:      434
  | Max. angular grid division number :        8
  | Radial grid for Hartree potential :     1383
  | Number of spin channels           :        1

------------------------------------------------------------
          Reading file control.in.
------------------------------------------------------------
  XC: Using PBE gradient-corrected functionals.
  Scalar relativistic treatment of kinetic energy: on-site free-atom approximation to ZORA.
  Found k-point grid:         8         8         8
  Geometry relaxation: Modified BFGS - TRM (trust radius method) for lattice optimization.
  Convergence accuracy for geometry relaxation: Maximum force <   0.500000E-02 eV/A.
 
  Reading configuration options for species Ti                  .
  | Found nuclear charge :  22.0000
  | Found atomic mass :    47.8670000000000      amu
  | Found l_max for Hartree potential  :   6
  | Found cutoff potl. onset [A], width [A], scale factor :    4.00000    2.00000    1.00000
  | Threshold for basis-dependent cutoff potential is   0.100000E-03
  | Found data for basic radial integration grid :    48 points, outermost radius =    7.000 A
  | Found multiplier for basic radial grid :   2
  | Found angular grid specification: user-specified.
  | Specified grid contains     6 separate shells.
  | Check grid settings after all constraints further below.
  | Found free-atom valence shell :  4 s   2.000
  | Found free-atom valence shell :  3 p   6.000
  | Found free-atom valence shell :  3 d   2.000
  | Found free-ion valence shell :  4 s   1.000
  | Found free-ion valence shell :  3 p   6.000
  | Found free-ion valence shell :  3 d   1.000
  | Found hydrogenic basis function :  4 f   8.000
  | Found hydrogenic basis function :  3 d   2.700
  | Found ionic basis function :  4 p , default cutoff radius.
  | Found hydrogenic basis function :  5 g  11.600
  | Found ionic basis function :  4 s , default cutoff radius.
 | Encountered keyword species, ending the description of species Ti                  .
  Species Ti                  : Missing cutoff potential type.
  Defaulting to exp(1/x)/(1-x)^2 type cutoff potential.
  Species Ti: No 'logarithmic' tag. Using default grid for free atom:
  | Default logarithmic grid data [bohr] : 0.1000E-03 0.1000E+03 0.1012E+01
  | Will include ionic basis functions of  2.0-fold positive Ti                   ion.
  Species Ti: On-site basis accuracy parameter (for Gram-Schmidt orthonormalisation) not specified.
  Using default value basis_acc =  0.1000000E-03.
  Species Ti                  : Using default innermost maximum threshold i_radial=  2 for radial functions.
  Species Ti                  : Default cutoff onset for free atom density etc. : 0.40000000E+01 AA.
  Species Ti                  : Basic radial grid will be enhanced according to radial_multiplier =   2, to contain    97 grid points.
 
  Reading configuration options for species O                   .
  | Found nuclear charge :   8.0000
  | Found atomic mass :    15.9994000000000      amu
  | Found l_max for Hartree potential  :   6
  | Found cutoff potl. onset [A], width [A], scale factor :    4.00000    2.00000    1.00000
  | Threshold for basis-dependent cutoff potential is   0.100000E-03
  | Found data for basic radial integration grid :    36 points, outermost radius =    7.000 A
  | Found multiplier for basic radial grid :   2
  | Found angular grid specification: user-specified.
  | Specified grid contains     6 separate shells.
  | Check grid settings after all constraints further below.
  | Found free-atom valence shell :  2 s   2.000
  | Found free-atom valence shell :  2 p   4.000
  | Found free-ion valence shell :  2 s   1.000
  | Found free-ion valence shell :  2 p   3.000
  | Found hydrogenic basis function :  2 p   1.800
  | Found hydrogenic basis function :  3 d   7.600
  | Found hydrogenic basis function :  3 s   6.400
  | Found hydrogenic basis function :  4 f  11.600
  | Found hydrogenic basis function :  3 p   6.200
  | Found hydrogenic basis function :  3 d   5.600
  | Found hydrogenic basis function :  5 g  17.600
  | Found hydrogenic basis function :  1 s   0.750
  Species O                   : Missing cutoff potential type.
  Defaulting to exp(1/x)/(1-x)^2 type cutoff potential.
  Species O : No 'logarithmic' tag. Using default grid for free atom:
  | Default logarithmic grid data [bohr] : 0.1000E-03 0.1000E+03 0.1012E+01
  Species O : On-site basis accuracy parameter (for Gram-Schmidt orthonormalisation) not specified.
  Using default value basis_acc =  0.1000000E-03.
  Species O                   : Using default innermost maximum threshold i_radial=  2 for radial functions.
  Species O                   : Default cutoff onset for free atom density etc. : 0.40000000E+01 AA.
  Species O                   : Basic radial grid will be enhanced according to radial_multiplier =   2, to contain    73 grid points.
 
  Finished reading input file 'control.in'.
 
------------------------------------------------------------


------------------------------------------------------------
          Reading geometry description geometry.in.
------------------------------------------------------------
  | The smallest distance between any two atoms is         1.26689494 AA.
  | The first atom of this pair is atom number                      2 .
  | The second atom of this pair is atom number                     6 .
  | Wigner-Seitz cell of the first atom image           0     1     0 .
  | (The Wigner-Seitz cell of the second atom is 0 0 0  by definition.)

  Symmetry information by spglib:
  | Precision set to  0.1E-04
  | Number of Operations  : 8
  | Space group           : 65
  | International         : Cmmm
  | Schoenflies           : D2h^19
  Input structure read successfully.
  The structure contains        6 atoms,  and a total of         76.000 electrons.

  Input geometry:
  | Unit cell:
  |        4.59400000        0.00000000        0.00000000
  |        0.00000000        4.59400000        0.00000000
  |        0.00000000        0.00000000        2.95800000
  | Atomic structure:
  |       Atom                x [A]            y [A]            z [A]
  |    1: Species Ti            0.00000000        0.00000000        0.00000000
  |    2: Species Ti            2.29700000        2.29700000        1.47900000
  |    3: Species O             1.40117000        1.40117000        0.00000000
  |    4: Species O             3.19283000        3.19283000        0.00000000
  |    5: Species O             1.40117000        3.19283000        1.47900000
  |    6: Species O             3.19283000        1.40117000        1.47900000

  Lattice parameters for 3D lattice (in Angstroms) :     4.594000    4.594000    2.958000
  Angle(s) between unit vectors (in degrees)       :    90.000000   90.000000   90.000000


  Quantities derived from the lattice vectors (in Angstrom^-1):
  | Reciprocal lattice vector 1:  1.367694  0.000000  0.000000
  | Reciprocal lattice vector 2:  0.000000  1.367694  0.000000
  | Reciprocal lattice vector 3:  0.000000  0.000000  2.124133
  | Unit cell volume                               :   0.624281E+02  Angstrom^3

  Fractional coordinates:
                         L1                L2                L3
       atom_frac         0.00000000        0.00000000        0.00000000  Ti
       atom_frac         0.50000000        0.50000000        0.50000000  Ti
       atom_frac         0.30500000        0.30500000        0.00000000  O
       atom_frac         0.69500000        0.69500000        0.00000000  O
       atom_frac         0.30500000        0.69500000        0.50000000  O
       atom_frac         0.69500000        0.30500000        0.50000000  O

  Slab Identifier: This seems to be a bulk system.
 
  Finished reading input file 'geometry.in'.
 

 
  Consistency checks for stacksize environment parameter are next.
 
  | Maximum stacksize for task 0: unlimited
  | Maximum stacksize for task 1: unlimited
  | Maximum stacksize for task 2: unlimited
  | Maximum stacksize for task 3: unlimited
  | Maximum stacksize for task 4: unlimited
  | Maximum stacksize for task 5: unlimited
  | Maximum stacksize for task 6: unlimited
  | Maximum stacksize for task 7: unlimited
  | Maximum stacksize for task 8: unlimited
  | Maximum stacksize for task 9: unlimited
  | Maximum stacksize for task 10: unlimited
  | Maximum stacksize for task 11: unlimited
  | Maximum stacksize for task 12: unlimited
  | Maximum stacksize for task 13: unlimited
  | Maximum stacksize for task 14: unlimited
  | Maximum stacksize for task 15: unlimited
  | Maximum stacksize for task 16: unlimited
  | Maximum stacksize for task 17: unlimited
  | Maximum stacksize for task 18: unlimited
  | Maximum stacksize for task 19: unlimited
  | Maximum stacksize for task 20: unlimited
  | Maximum stacksize for task 21: unlimited
  | Maximum stacksize for task 22: unlimited
  | Maximum stacksize for task 23: unlimited
  | Current stacksize for task 0: unlimited
  | Current stacksize for task 1: unlimited
  | Current stacksize for task 2: unlimited
  | Current stacksize for task 3: unlimited
  | Current stacksize for task 4: unlimited
  | Current stacksize for task 5: unlimited
  | Current stacksize for task 6: unlimited
  | Current stacksize for task 7: unlimited
  | Current stacksize for task 8: unlimited
  | Current stacksize for task 9: unlimited
  | Current stacksize for task 10: unlimited
  | Current stacksize for task 11: unlimited
  | Current stacksize for task 12: unlimited
  | Current stacksize for task 13: unlimited
  | Current stacksize for task 14: unlimited
  | Current stacksize for task 15: unlimited
  | Current stacksize for task 16: unlimited
  | Current stacksize for task 17: unlimited
  | Current stacksize for task 18: unlimited
  | Current stacksize for task 19: unlimited
  | Current stacksize for task 20: unlimited
  | Current stacksize for task 21: unlimited
  | Current stacksize for task 22: unlimited
  | Current stacksize for task 23: unlimited
 
  Consistency checks for the contents of control.in are next.
 
  MPI_IN_PLACE appears to work with this MPI implementation.
  | Keeping use_mpi_in_place .true. (see manual).
  Target number of points in a grid batch is not set. Defaulting to  100
  Method for grid partitioning is not set. Defaulting to parallel hash+maxmin partitioning.
  Batch size limit is not set. Defaulting to    200
  By default, will store active basis functions for each batch.
  If in need of memory, prune_basis_once .false. can be used to disable this option.
  communication_type for Hartree potential was not specified.
  Defaulting to calc_hartree .
  Defaulting to Pulay charge density mixer.
  Pulay mixer: Number of relevant iterations not set.
  Defaulting to    8 iterations.
  Pulay mixer: Number of initial linear mixing iterations not set.
  Defaulting to    0 iterations.
  Work space size for distributed Hartree potential not set.
  Defaulting to   0.200000E+03 MB.
  Mixing parameter for charge density mixing has not been set.
  Using default: charge_mix_param =     0.0500.
  The mixing parameter will be adjusted in iteration number     2 of each s.c.f. cycle (i.e., each geometry step).
  Algorithm-dependent basis array size parameters:
  | n_max_pulay                         :        8
  Maximum number of self-consistency iterations not provided.
  Presetting  1000 iterations.
  Presetting      1001 iterations before the initial mixing cycle
  is restarted anyway using the sc_init_iter criterion / keyword.
  Presetting a factor      1.000 between actual scf density residual
  and density convergence criterion sc_accuracy_rho below which sc_init_iter
  takes no effect.
 * No s.c.f. convergence criteria (sc_accuracy_*) were provided in control.in.
 * The run will proceed with a reasonable default guess, but please check whether.
 * the s.c.f. cycles seem to take too much or too little time.
  No maximum number of relaxation steps, defaulting to     1000
  Default initial Hessian is Lindh matrix (thres = 15.00) plus  0.200000E+01 eV/A^2 times unity.
  No maximum energy tolerance for TRM/BFGS moves, defaulting to   0.150000E-02
  Maximum energy tolerance by which TRM/BFGS trajectory may increase over multiple steps:   0.300000E-02
  No harmonic length scale. Defaulting to   0.250000E-01 A.
  No trust radius initializer. Defaulting to   0.200000E+00 A.
  Unit cell relaxation: Unit cell will be relaxed fully.
  Unit cell relaxation: Analytical stress will be used.
  Analytical stress will be computed.
  Analytical stress calculation: Only the upper triangle is calculated.
                                 Final output is symmetrized.
  Analytical stress calculation: scf convergence accuracy of stress not set.
                                 Analytical stress self-consistency will not be checked explicitly.
                                 Be sure to set other criteria like sc_accuracy_rho tight enough.
  Forces evaluation will include force correction term due to incomplete self-consistency (default).
 * Notice: The s.c.f. convergence criterion sc_accuracy_rho was not provided.
 * We used to stop in this case, and ask the user to provide reasonable
 * scf convergence criteria. However, this led some users to employ criteria
 * that led to extremely long run times, e.g., for simple relaxation.
 * We now preset a default value for sc_accuracy_rho if it is not set.
 * You may still wish to check if this setting is too tight or too loose for your needs.
 * Based on n_atoms and forces and force-correction status, FHI-aims chose sc_accuracy_rho =  0.100000E-05 .
  Force calculation: scf convergence accuracy of forces not set.
  Defaulting to 'sc_accuracy_forces not_checked'.
  Handling of forces: Unphysical translation and rotation will be removed from forces.
  No accuracy limit for integral partition fn. given. Defaulting to  0.1000E-14.
  No threshold value for u(r) in integrations given. Defaulting to  0.1000E-05.
  No occupation type (smearing scheme) given. Defaulting to Gaussian broadening, width =  0.1000E-01 eV.
  The width will be adjusted in iteration number     2 of each s.c.f. cycle (i.e., each geometry step).
  No accuracy for occupation numbers given. Defaulting to  0.1000E-12.
  No threshold value for occupation numbers given. Defaulting to  0.0000E+00.
  No accuracy for fermi level given. Defaulting to  0.1000E-19.
  Maximum # of iterations to find E_F not set. Defaulting to  200.
  Preferred method for the eigenvalue solver ('KS_method') not specified in 'control.in'.
  Defaulting to serial version, LAPACK (via ELSI), since more k-points than CPUs available.
  Will not use alltoall communication since running on < 1024 CPUs.
  Threshold for basis singularities not set.
  Default threshold for basis singularities:  0.1000E-04
  partition_type (choice of integration weights) for integrals was not specified.
  | Using a version of the partition function of Stratmann and coworkers ('stratmann_sparse').
  | At each grid point, the set of atoms used to build the partition table is smoothly restricted to
  | only those atoms whose free-atom density would be non-zero at that grid point.
  Partitioning for Hartree potential was not defined. Using partition_type for integrals.
  | Adjusted default value of keyword multip_moments_threshold to:       0.10000000E-11
  | This value may affect high angular momentum components of the Hartree potential in periodic systems.
  Spin handling was not defined in control.in. Defaulting to unpolarized case.
  No q(lm)/r^(l+1) cutoff set for long-range Hartree potential.
  | Using default value of  0.100000E-09 .
  | Verify using the multipole_threshold keyword.
  Defaulting to new monopole extrapolation.
  Density update method: automatic selection selected.
  Using density matrix based charge density update.
  Using density matrix based charge density update.
  Using packed matrix style: index .
  Geometry relaxation: A file "geometry.in.next_step" is written out by default after each step.
  | This file contains the geometry of the current relaxation step as well as
  | the current Hessian matrix needed to restart the relaxation algorithm.
  | If you do not want part or all of this information, use the keywords
  | "write_restart_geometry" or "hessian_to_restart_geometry" to switch the output off.
  Defaulting to use time-reversal symmetry for k-point grid.
  Charge integration errors on the 3D integration grid will be compensated
  by explicit normalization and distribution of residual charges.
  Use the "compensate_multipole_errors" flag to change this behaviour.
  Set 'collect_eigenvectors' to be '.true.' for all serial calculations. This is mandatory.
  Set 'collect_eigenvectors' to be '.true.' for KS_method lapack_fast and serial.
  Found potential conflicts with setting 'use_local_index' for this calculation. Will not set it.
 
  Consistency checks for the contents of geometry.in are next.
 

  Range separation radius for Ewald summation (hartree_convergence_parameter):      3.02465203 bohr.
  Number of empty states per atom not set in control.in - providing a guess from actual geometry.
  | Total number of empty states used during s.c.f. cycle:       23
  If you use a very high smearing, use empty_states (per atom!) in control.in to increase this value.

  Structure-dependent array size parameters: 
  | Maximum number of distinct radial functions  :       23
  | Maximum number of basis functions            :      236
  | Number of Kohn-Sham states (occupied + empty):       61
------------------------------------------------------------
  After read_input_data [GB]:    357.04

  Performing system and environment tests:
  *** Environment variable OMP_NUM_THREADS is not set
  *** For performance reasons you might want to set it to 1
  | Checking for ScaLAPACK...
  | Testing pdtran()...
  | All pdtran() tests passed.
  After prepare_system [GB]:    356.90

------------------------------------------------------------
          Preparing all fixed parts of the calculation.
------------------------------------------------------------
  Determining machine precision:
    2.225073858507201E-308
  Setting up grids for atomic and cluster calculations.

  Creating wave function, potential, and density for free atoms.
  Runtime choices for atomic solver:
  | atomic solver xc        : PBE
  | compute density gradient: 1
  | compute kinetic density : F

  Species: Ti

  List of occupied orbitals and eigenvalues:
    n    l              occ      energy [Ha]    energy [eV]
    1    0           2.0000      -179.971977     -4897.2867
    2    0           2.0000       -19.740069      -537.1546
    3    0           2.0000        -2.295181       -62.4550
    4    0           2.0000        -0.158903        -4.3240
    2    1           6.0000       -16.329721      -444.3543
    3    1           6.0000        -1.421430       -38.6791
    3    2           2.0000        -0.150533        -4.0962


  Species: O

  List of occupied orbitals and eigenvalues:
    n    l              occ      energy [Ha]    energy [eV]
    1    0           2.0000       -18.927378      -515.0401
    2    0           2.0000        -0.880539       -23.9607
    2    1           4.0000        -0.331811        -9.0290


  Adding cutoff potential to free-atom effective potential.
  Creating fixed part of basis set: Ionic, confined, hydrogenic.
 
  Ti                   ion:

  List of free ionic orbitals and eigenvalues:
    n    l      energy [Ha]    energy [eV]
    1    0      -180.819616     -4920.3521
    2    0       -20.608761      -560.7929
    3    0        -3.115729       -84.7833
    4    0        -0.697188       -18.9715
    2    1       -17.196209      -467.9327
    3    1        -2.231296       -60.7167
    3    2        -0.911363       -24.7995


  List of ionic basis orbitals and eigenvalues:
    n    l      energy [Ha]    energy [eV]    outer radius [A]
    4    1        -0.519390       -14.1333       5.449321
    4    0        -0.697156       -18.9706       5.383109

 
  Ti                   hydrogenic:
 
  List of hydrogenic basis orbitals: 
    n    l      effective z      eigenvalue [eV]  inner max. [A]     outer max. [A]     outer radius [A]   
    4    3         8.000000       -54.4226           1.059019           1.059019           4.648601
    3    2         2.700000       -10.9576           1.748166           1.748166           5.449321
    5    4        11.600000       -73.2312           1.139618           1.139618           4.536321
 
 
  O                    hydrogenic:
 
  List of hydrogenic basis orbitals: 
    n    l      effective z      eigenvalue [eV]  inner max. [A]     outer max. [A]     outer radius [A]   
    2    1         1.800000       -11.0118           1.178562           1.178562           5.432602
    3    2         7.600000       -87.3182           0.624125           0.624125           3.541477
    3    0         6.400000       -61.9209           0.061167           1.081902           4.306578
    4    3        11.600000      -114.4238           0.731631           0.731631           3.585037
    3    1         6.200000       -58.1113           0.255680           1.030270           4.306578
    3    2         5.600000       -47.4081           0.847233           0.847233           4.413171
    5    4        17.600000      -168.5799           0.749740           0.749740           3.372465
    1    0         0.750000        -7.6499           0.705284           0.705284           5.366593
 
  Creating atomic-like basis functions for current effective potential.

  Species Ti                  :

  List of atomic basis orbitals and eigenvalues:
    n    l      energy [Ha]    energy [eV]    outer radius [A]
    1    0      -179.971977     -4897.2867       0.490254
    2    0       -19.740069      -537.1546       1.491292
    3    0        -2.295181       -62.4550       4.215492
    4    0        -0.158903        -4.3240       5.449321
    2    1       -16.329721      -444.3543       1.585290
    3    1        -1.421430       -38.6791       4.822253
    3    2        -0.150533        -4.0962       5.383109


  Species O                   :

  List of atomic basis orbitals and eigenvalues:
    n    l      energy [Ha]    energy [eV]    outer radius [A]
    1    0       -18.927378      -515.0401       1.415765
    2    0        -0.880539       -23.9607       5.048385
    2    1        -0.331811        -9.0290       5.301386

  Assembling full basis from fixed parts.
  | Species Ti :   atomic orbital   1 s accepted.
  | Species Ti :   atomic orbital   2 s accepted.
  | Species Ti :   atomic orbital   3 s accepted.
  | Species Ti :    ionic orbital   4 s accepted.
  | Species Ti :   atomic orbital   4 s accepted.
  | Species Ti :   atomic orbital   2 p accepted.
  | Species Ti :   atomic orbital   3 p accepted.
  | Species Ti :    ionic orbital   4 p accepted.
  | Species Ti :   atomic orbital   3 d accepted.
  | Species Ti :    hydro orbital   3 d accepted.
  | Species Ti :    hydro orbital   4 f accepted.
  | Species Ti :    hydro orbital   5 g accepted.
  | Species O :   atomic orbital   1 s accepted.
  | Species O :    hydro orbital   3 s accepted.
  | Species O :   atomic orbital   2 s accepted.
  | Species O :    hydro orbital   1 s accepted.
  | Species O :    hydro orbital   3 p accepted.
  | Species O :   atomic orbital   2 p accepted.
  | Species O :    hydro orbital   2 p accepted.
  | Species O :    hydro orbital   3 d accepted.
  | Species O :    hydro orbital   3 d accepted.
  | Species O :    hydro orbital   4 f accepted.
  | Species O :    hydro orbital   5 g accepted.
 
  Basis size parameters after reduction:
  | Total number of radial functions:       23
  | Total number of basis functions :      236
 
  Per-task memory consumption for arrays in subroutine allocate_ext:
  |           8.149848MB.
  Testing on-site integration grid accuracy.
  |  Species  Function  <phi|h_atom|phi> (log., in eV)  <phi|h_atom|phi> (rad., in eV)
           1        1              -4897.2866775048              -4897.2865281705
           1        2               -537.1546057165               -537.1546030101
           1        3                -62.4550461141                -62.4550457173
           1        4                 -3.5044071906                 -3.5043997442
           1        5                  4.8243353859                  4.8253021531
           1        6               -444.3543098525               -444.3543092932
           1        7                -38.6790689451                -38.6790687353
           1        8                 -0.0282770068                 -0.0282312865
           1        9                 -4.0966922458                 -4.0966843178
           1       10                  5.3329074064                  5.3332050496
           1       11                 27.5821189441                 27.5821192959
           1       12                 51.3154532434                 51.3154529981
           2       13               -515.0401491148               -515.0401445497
           2       14                 15.1629302771                 15.1629233102
           2       15                -21.6127103295                -21.6127145449
           2       16                 14.4001435709                 14.4001765990
           2       17                 20.8862585187                 20.8862589491
           2       18                 -2.4803658578                 -2.4803665016
           2       19                 13.8586387760                 13.8586021622
           2       20                 45.8331828879                 45.8331828941
           2       21                 52.1851961049                 52.1851977023
           2       22                 85.4133898762                 85.4133899074
           2       23                142.1023296234                142.1023296272

  Preparing densities etc. for the partition functions (integrals / Hartree potential).

  Preparations completed.
  max(cpu_time)          :      0.282 s.
  Wall clock time (cpu1) :      0.282 s.
------------------------------------------------------------
  After prepare_scf [GB]:    356.37

  Initializing index lists of integration centers etc. from given atomic structure:
  Mapping all atomic coordinates to central unit cell.

  Initializing the k-points
  Using symmetry for reducing the k-points
  | k-points reduced from:      512 to      260
  | Number of k-points                             :       260
  The eigenvectors in the calculations are COMPLEX.
  | K-points in task   0:        10
  | K-points in task   1:        11
  | K-points in task   2:        11
  | K-points in task   3:        11
  | K-points in task   4:        11
  | K-points in task   5:        11
  | K-points in task   6:        11
  | K-points in task   7:        11
  | K-points in task   8:        11
  | K-points in task   9:        11
  | K-points in task  10:        11
  | K-points in task  11:        11
  | K-points in task  12:        11
  | K-points in task  13:        11
  | K-points in task  14:        11
  | K-points in task  15:        11
  | K-points in task  16:        11
  | K-points in task  17:        11
  | K-points in task  18:        11
  | K-points in task  19:        11
  | K-points in task  20:        11
  | K-points in task  21:        10
  | K-points in task  22:        10
  | K-points in task  23:        10
  | Number of basis functions in the Hamiltonian integrals :      6664
  | Number of basis functions in a single unit cell        :       236
  | Number of centers in hartree potential         :      1445
  | Number of centers in hartree multipole         :      1220
  | Number of centers in electron density summation:       885
  | Number of centers in basis integrals           :       965
  | Number of centers in integrals                 :       315
  | Number of centers in hamiltonian               :       907
  | Consuming        885 KiB for k_phase.
  | Number of super-cells (origin) [n_cells]                     :        1053
  | Number of super-cells (after PM_index) [n_cells]             :         218
  | Number of super-cells in hamiltonian [n_cells_in_hamiltonian]:         218
  | Size of matrix packed + index [n_hamiltonian_matrix_size] :     1378789
  After initialize_bc_dependent_lists [GB]:    356.13

------------------------------------------------------------
          Begin self-consistency loop: Initialization.

          Date     :  20240708, Time     :  013720.755
------------------------------------------------------------

  Initializing relaxation algorithms.
  Finished initialization of distributed Hessian storage.
  | Global dimension:        27
  | BLACS block size:         2
  | Number of workers:       14

  Available memory per node after initialize_hartree_non_periodic_ewald [GB]:    356.12
  | Estimated reciprocal-space cutoff momentum G_max:         3.29309518 bohr^-1 .
  | Reciprocal lattice points for long-range Hartree potential:     264
  Available memory per node after initialize_recip_hartree_potential [GB]:    356.12
  Available memory per node after initialize_scalapack [GB]:    356.12
  Available memory per node after aims_elsi_init_scf [GB]:    356.12
  Available memory per node after initialize_fixed_grids [GB]:    356.12
  Partitioning the integration grid into batches with parallel hashing+maxmin method.
  | Number of batches:     1673
  | Maximal batch size:     113
  | Minimal batch size:      51
  | Average batch size:      72.380
  | Standard deviation of batch sizes:      15.544

  Integration load balanced across    24 MPI tasks.
  Work distribution over tasks is as follows:
  Task     0 has       5086 integration points.
  Task     1 has       5050 integration points.
  Task     2 has       5014 integration points.
  Task     3 has       5003 integration points.
  Task     4 has       5049 integration points.
  Task     5 has       4998 integration points.
  Task     6 has       5003 integration points.
  Task     7 has       5063 integration points.
  Task     8 has       5053 integration points.
  Task     9 has       5080 integration points.
  Task    10 has       5009 integration points.
  Task    11 has       5022 integration points.
  Task    12 has       5053 integration points.
  Task    13 has       5067 integration points.
  Task    14 has       5065 integration points.
  Task    15 has       5080 integration points.
  Task    16 has       5061 integration points.
  Task    17 has       5073 integration points.
  Task    18 has       5041 integration points.
  Task    19 has       5061 integration points.
  Task    20 has       5073 integration points.
  Task    21 has       5007 integration points.
  Task    22 has       5066 integration points.
  Task    23 has       5015 integration points.
  Available memory per node after partition_grid [GB]:    356.12
  Initializing partition tables, free-atom densities, potentials, etc. across the integration grid (initialize_grid_storage).
  | initialize_grid_storage: Actual outermost partition radius vs. multipole_radius_free
  | (-- VB: in principle, multipole_radius_free should be larger, hence this output)
  | Species        1: Confinement radius =              6.000000000000000 AA, multipole_radius_free =              6.009195547060584 AA.
  | Species        1: outer_partition_radius set to              6.009195547060584 AA .
  | Species        2: Confinement radius =              6.000000000000000 AA, multipole_radius_free =              6.064445521808699 AA.
  | Species        2: outer_partition_radius set to              6.064445521808699 AA .
  | The sparse table of interatomic distances needs       8143.06 kbyte instead of      7449.80 kbyte of memory.
  | Using the partition_type stratmann_smoother will reduce your memory usage.
  | Net number of integration points:   121092
  | of which are non-zero points    :    85098
  | Numerical average free-atom electrostatic potential    :    -18.72688527 eV
  Available memory per node after initialize_grid_storage_p1 [GB]:    356.12
  Renormalizing the initial density to the exact electron count on the 3D integration grid.
  | Initial density: Formal number of electrons (from input files) :      76.0000000000
  | Integrated number of electrons on 3D grid     :      75.9995990705
  | Charge integration error                      :      -0.0004009295
  | Normalization factor for density and gradient :       1.0000052754
  Renormalizing the free-atom superposition density to the exact electron count on the 3D integration grid.
  | Formal number of electrons (from input files) :      76.0000000000
  | Integrated number of electrons on 3D grid     :      75.9995990705
  | Charge integration error                      :      -0.0004009295
  | Normalization factor for density and gradient :       1.0000052754
  Obtaining max. number of non-zero basis functions in each batch (get_n_compute_maxes).
  | Maximal number of non-zero basis functions:     1861 in task     0
  | Maximal number of non-zero basis functions:     1866 in task     1
  | Maximal number of non-zero basis functions:     1845 in task     2
  | Maximal number of non-zero basis functions:     1918 in task     3
  | Maximal number of non-zero basis functions:     1903 in task     4
  | Maximal number of non-zero basis functions:     1865 in task     5
  | Maximal number of non-zero basis functions:     1905 in task     6
  | Maximal number of non-zero basis functions:     1854 in task     7
  | Maximal number of non-zero basis functions:     1894 in task     8
  | Maximal number of non-zero basis functions:     1924 in task     9
  | Maximal number of non-zero basis functions:     1890 in task    10
  | Maximal number of non-zero basis functions:     1866 in task    11
  | Maximal number of non-zero basis functions:     1854 in task    12
  | Maximal number of non-zero basis functions:     1865 in task    13
  | Maximal number of non-zero basis functions:     1895 in task    14
  | Maximal number of non-zero basis functions:     1879 in task    15
  | Maximal number of non-zero basis functions:     1887 in task    16
  | Maximal number of non-zero basis functions:     1905 in task    17
  | Maximal number of non-zero basis functions:     1875 in task    18
  | Maximal number of non-zero basis functions:     1912 in task    19
  | Maximal number of non-zero basis functions:     1910 in task    20
  | Maximal number of non-zero basis functions:     1898 in task    21
  | Maximal number of non-zero basis functions:     1897 in task    22
  | Maximal number of non-zero basis functions:     1867 in task    23
  Available memory per node after get_n_compute_maxes_p1 [GB]:    356.09
  Allocating        2.197 MB for KS_eigenvector_complex
  Available memory per node after allocate_matrices [GB]:    356.04
  Available memory per node after init_comm_sparse_local_matrix_scalapack [GB]:    356.04
  Integrating Hamiltonian matrix: batch-based integration.
  Time summed over all CPUs for integration: real work       55.273 s, elapsed       56.826 s
  Available memory per node after integrate hamiltonian matrix [GB]:    354.96
  Integrating overlap matrix.
  Time summed over all CPUs for integration: real work       41.027 s, elapsed       43.311 s
  Available memory per node after integrate ovlp matrix [GB]:    354.61
  Available memory per node after ASI_callbacks invoke [GB]:    354.61
  Available memory per node after save_overlap_scalapack [GB]:    354.61

  Updating Kohn-Sham eigenvalues and eigenvectors using ELSI and the (modified) LAPACK eigensolver.
  Singularity check in k-point 24, task 0 (analysis for other k-points/tasks may follow below):
  Overlap matrix is not singular
  | Lowest and highest eigenvalues :  0.6806E-04,  0.1438E+02
  Finished singularity check of overlap matrix
  | Time :     0.011 s
  Starting LAPACK eigensolver
  Finished Cholesky decomposition
  | Time :     0.002 s
  Finished transformation to standard eigenproblem
  | Time :     0.004 s
  Finished solving standard eigenproblem
  | Time :     0.012 s
  Finished back-transformation of eigenvectors
  | Time :     0.000 s

  Obtaining occupation numbers and electronic chemical potential using ELSI.
  | Note that, for insulating systems, the printed 'chemical potential' value is not uniquely defined.
  | It can be anywhere in the energy gap, as long as it correctly separates occupied and unoccupied states.
  | In systems with a gap, the physically relevant chemical potential is the VBM or HOMO.

  | Chemical potential (Fermi level):    -7.72235128 eV
  Available memory per node after advance_KS_solution [GB]:    354.60
  Writing Kohn-Sham eigenvalues.
  K-point:       1 at    0.000000    0.000000    0.000000 (in units of recip. lattice)

  State    Occupation    Eigenvalue [Ha]    Eigenvalue [eV]
      1       2.00000        -180.038940        -4899.10881
      2       2.00000        -179.982787        -4897.58082
      3       2.00000         -19.813518         -539.15326
      4       2.00000         -19.751639         -537.46945
      5       2.00000         -19.216374         -522.90413
      6       2.00000         -19.216366         -522.90393
      7       2.00000         -19.062727         -518.72319
      8       2.00000         -19.062727         -518.72318
      9       2.00000         -16.407320         -446.46590
     10       2.00000         -16.399531         -446.25396
     11       2.00000         -16.399169         -446.24410
     12       2.00000         -16.341255         -444.66818
     13       2.00000         -16.341229         -444.66745
     14       2.00000         -16.341001         -444.66127
     15       2.00000          -2.490963          -67.78256
     16       2.00000          -2.316392          -63.03222
     17       2.00000          -1.876063          -51.05027
     18       2.00000          -1.550056          -42.17918
     19       2.00000          -1.546296          -42.07687
     20       2.00000          -1.455880          -39.61652
     21       2.00000          -1.442388          -39.24936
     22       2.00000          -1.439329          -39.16614
     23       2.00000          -1.171312          -31.87302
     24       2.00000          -1.089152          -29.63733
     25       2.00000          -1.035453          -28.17611
     26       2.00000          -0.942053          -25.63456
     27       2.00000          -0.735725          -20.02009
     28       2.00000          -0.705324          -19.19285
     29       2.00000          -0.697775          -18.98743
     30       2.00000          -0.604964          -16.46192
     31       2.00000          -0.567832          -15.45150
     32       2.00000          -0.567210          -15.43458
     33       2.00000          -0.555823          -15.12473
     34       2.00000          -0.490923          -13.35869
     35       2.00000          -0.490669          -13.35177
     36       2.00000          -0.482825          -13.13834
     37       2.00000          -0.479220          -13.04024
     38       2.00000          -0.289571           -7.87963
     39       0.00000          -0.272094           -7.40405
     40       0.00000          -0.243385           -6.62285
     41       0.00000          -0.188738           -5.13583
     42       0.00000          -0.170737           -4.64598
     43       0.00000          -0.165721           -4.50949
     44       0.00000          -0.161356           -4.39071
     45       0.00000          -0.095406           -2.59613
     46       0.00000          -0.091992           -2.50324
     47       0.00000          -0.079049           -2.15103
     48       0.00000          -0.064400           -1.75241
     49       0.00000           0.048330            1.31511
     50       0.00000           0.053291            1.45011
     51       0.00000           0.063213            1.72012
     52       0.00000           0.129613            3.52694
     53       0.00000           0.206193            5.61079
     54       0.00000           0.251482            6.84317
     55       0.00000           0.269135            7.32353
     56       0.00000           0.337137            9.17396
     57       0.00000           0.375710           10.22359
     58       0.00000           0.400137           10.88828
     59       0.00000           0.542691           14.76737
     60       0.00000           0.566838           15.42444
     61       0.00000           0.648097           17.63561

  What follows are estimated values for band gap, HOMO, LUMO, etc.
  | They are estimated on a discrete k-point grid and not necessarily exact.
  | For converged numbers, create a DOS and/or band structure plot on a denser k-grid.

  Highest occupied state (VBM) at     -7.87963082 eV (relative to internal zero)
  | Occupation number:      2.00000000
  | K-point:       1 at    0.000000    0.000000    0.000000 (in units of recip. lattice)

  Lowest unoccupied state (CBM) at    -7.62328142 eV (relative to internal zero)
  | Occupation number:      0.00000000
  | K-point:     202 at    0.500000    0.500000    0.000000 (in units of recip. lattice)

  ESTIMATED overall HOMO-LUMO gap:      0.25634940 eV between HOMO at k-point 1 and LUMO at k-point 202
  | This appears to be an indirect band gap.
  | Smallest direct gap :      0.31484645 eV for k_point 202 at    0.500000    0.500000    0.000000 (in units of recip. lattice)
  The gap value is above 0.2 eV. Unless you are using a very sparse k-point grid,
  this system is most likely an insulator or a semiconductor.
  Calculating total energy contributions from superposition of free atom densities.

  Total energy components:
  | Sum of eigenvalues            :       -1198.90784942 Ha      -32623.94247054 eV
  | XC energy correction          :        -118.69147282 Ha       -3229.75930372 eV
  | XC potential correction       :         153.50322534 Ha        4177.03528679 eV
  | Free-atom electrostatic energy:        -849.32198839 Ha      -23111.22719046 eV
  | Hartree energy correction     :           0.00000000 Ha           0.00000000 eV
  | Entropy correction            :          -0.00000000 Ha          -0.00000000 eV
  | ---------------------------
  | Total energy                  :       -2013.41808528 Ha      -54787.89367793 eV
  | Total energy, T -> 0          :       -2013.41808528 Ha      -54787.89367793 eV  <-- do not rely on this value for anything but (periodic) metals
  | Electronic free energy        :       -2013.41808528 Ha      -54787.89367793 eV

  Derived energy quantities:
  | Kinetic energy                :        2028.71364386 Ha       55204.10700352 eV
  | Electrostatic energy          :       -3923.44025633 Ha     -106762.24137773 eV
  | Energy correction for multipole
  | error in Hartree potential    :           0.00000000 Ha           0.00000000 eV
  | Sum of eigenvalues per atom                           :       -5437.32374509 eV
  | Total energy (T->0) per atom                          :       -9131.31561299 eV  <-- do not rely on this value for anything but (periodic) metals
  | Electronic free energy per atom                       :       -9131.31561299 eV
  Initialize hartree_potential_storage
  Max. number of atoms included in rho_multipole:            6

  End scf initialization - timings             :  max(cpu_time)    wall_clock(cpu1)
  | Time for scf. initialization                :        5.651 s           5.651 s
  | Boundary condition initialization           :        0.105 s           0.105 s
  | Relaxation initialization                   :        0.008 s           0.008 s
  | Integration                                 :        4.238 s           4.238 s
  | Solution of K.-S. eqns.                     :        0.512 s           0.511 s
  | Grid partitioning                           :        0.085 s           0.085 s
  | Preloading free-atom quantities on grid     :        0.749 s           0.749 s
  | Free-atom superposition energy              :        0.057 s           0.057 s
  | Total energy evaluation                     :        0.001 s           0.001 s

  Partial memory accounting:
  | Current value for overall tracked memory usage:
  |   Minimum:       28.552 MB (on task 21)
  |   Maximum:       28.772 MB (on task  1)
  |   Average:       28.735 MB
  | Peak value for overall tracked memory usage:
  |   Minimum:       59.557 MB (on task  2 after allocating wave)
  |   Maximum:       62.035 MB (on task  9 after allocating wave)
  |   Average:       60.760 MB
  | Largest tracked array allocation so far:
  |   Minimum:       25.971 MB (hamiltonian_shell on task  2)
  |   Maximum:       28.242 MB (hamiltonian_shell on task  9)
  |   Average:       27.107 MB
  Note:  These values currently only include a subset of arrays which are explicitly tracked.
  The "true" memory usage will be greater.
------------------------------------------------------------
  Available memory after initialize_scf [GB]:    354.60
  Available memory after allocating mixing [GB]:    354.60
  Evaluating new KS density using the density matrix
  Evaluating density matrix
  Time summed over all CPUs for getting density from density matrix: real work      107.724 s, elapsed      111.678 s
  Integration grid: deviation in total charge (<rho> - N_e) =   4.263256E-14

  Time for density update prior                :  max(cpu_time)    wall_clock(cpu1)
  | self-consistency iterative process          :        4.703 s           4.704 s
  Available memory before start of SCF loop [GB]:    354.38

------------------------------------------------------------
          Begin self-consistency iteration #    1

  Date     :  20240708, Time     :  013731.110
------------------------------------------------------------
  Pulay mixing of updated and previous charge densities.
  Available memory per node after mixing [GB]:    354.38
  Renormalizing the density to the exact electron count on the 3D integration grid.
  | Formal number of electrons (from input files) :      76.0000000000
  | Integrated number of electrons on 3D grid     :      76.0000000000
  | Charge integration error                      :      -0.0000000000
  | Normalization factor for density and gradient :       1.0000000000

  Evaluating partitioned Hartree potential by multipole expansion.
  | Original multipole sum: apparent total charge =  -0.893298E-13
  | Sum of charges compensated after spline to logarithmic grids =  -0.714906E-07
  | Analytical far-field extrapolation by fixed multipoles:
  | Hartree multipole sum: apparent total charge =  -0.893851E-13
  Summing up the Hartree potential.
  Time summed over all CPUs for potential: real work        0.127 s, elapsed        0.135 s
  | RMS charge density error from multipole expansion :   0.775172E-03
  | Average real-space part of the electrostatic potential :      0.09450808 eV

  Integrating Hamiltonian matrix: batch-based integration.
  Time summed over all CPUs for integration: real work       54.987 s, elapsed       57.790 s

  Updating Kohn-Sham eigenvalues and eigenvectors using ELSI and the (modified) LAPACK eigensolver.
  Starting LAPACK eigensolver
  Finished Cholesky decomposition
  | Time :     0.002 s
  Finished transformation to standard eigenproblem
  | Time :     0.004 s
  Finished solving standard eigenproblem
  | Time :     0.012 s
  Finished back-transformation of eigenvectors
  | Time :     0.000 s

  Obtaining occupation numbers and electronic chemical potential using ELSI.
  | Note that, for insulating systems, the printed 'chemical potential' value is not uniquely defined.
  | It can be anywhere in the energy gap, as long as it correctly separates occupied and unoccupied states.
  | In systems with a gap, the physically relevant chemical potential is the VBM or HOMO.

  | Chemical potential (Fermi level):    -7.46784807 eV
  Writing Kohn-Sham eigenvalues.
  K-point:       1 at    0.000000    0.000000    0.000000 (in units of recip. lattice)

  State    Occupation    Eigenvalue [Ha]    Eigenvalue [eV]
      1       2.00000        -180.041970        -4899.19126
      2       2.00000        -180.012062        -4898.37744
      3       2.00000         -19.809028         -539.03108
      4       2.00000         -19.789548         -538.50101
      5       2.00000         -19.163902         -521.47630
      6       2.00000         -19.163895         -521.47611
      7       2.00000         -19.019188         -517.53843
      8       2.00000         -19.019187         -517.53842
      9       2.00000         -16.399045         -446.24071
     10       2.00000         -16.398840         -446.23515
     11       2.00000         -16.398784         -446.23362
     12       2.00000         -16.382335         -445.78602
     13       2.00000         -16.375550         -445.60138
     14       2.00000         -16.375267         -445.59370
     15       2.00000          -2.468293          -67.16566
     16       2.00000          -2.359057          -64.19321
     17       2.00000          -1.848401          -50.29755
     18       2.00000          -1.530998          -41.66056
     19       2.00000          -1.525809          -41.51937
     20       2.00000          -1.494154          -40.65800
     21       2.00000          -1.483246          -40.36119
     22       2.00000          -1.481409          -40.31118
     23       2.00000          -1.144810          -31.15186
     24       2.00000          -1.068081          -29.06397
     25       2.00000          -1.014720          -27.61194
     26       2.00000          -0.922530          -25.10332
     27       2.00000          -0.713411          -19.41290
     28       2.00000          -0.680170          -18.50838
     29       2.00000          -0.678333          -18.45839
     30       2.00000          -0.589027          -16.02825
     31       2.00000          -0.543015          -14.77619
     32       2.00000          -0.542957          -14.77460
     33       2.00000          -0.534955          -14.55686
     34       2.00000          -0.470755          -12.80990
     35       2.00000          -0.469992          -12.78913
     36       2.00000          -0.459999          -12.51721
     37       2.00000          -0.459761          -12.51075
     38       2.00000          -0.290587           -7.90727
     39       0.00000          -0.264760           -7.20448
     40       0.00000          -0.239440           -6.51549
     41       0.00000          -0.208537           -5.67459
     42       0.00000          -0.194855           -5.30226
     43       0.00000          -0.194376           -5.28925
     44       0.00000          -0.181251           -4.93210
     45       0.00000          -0.096007           -2.61247
     46       0.00000          -0.085756           -2.33355
     47       0.00000          -0.069197           -1.88294
     48       0.00000          -0.049890           -1.35758
     49       0.00000           0.049229            1.33960
     50       0.00000           0.051236            1.39419
     51       0.00000           0.066165            1.80045
     52       0.00000           0.134577            3.66203
     53       0.00000           0.202916            5.52162
     54       0.00000           0.254359            6.92147
     55       0.00000           0.276228            7.51654
     56       0.00000           0.341993            9.30609
     57       0.00000           0.366819            9.98166
     58       0.00000           0.407583           11.09090
     59       0.00000           0.553129           15.05139
     60       0.00000           0.586127           15.94933
     61       0.00000           0.665264           18.10276

  What follows are estimated values for band gap, HOMO, LUMO, etc.
  | They are estimated on a discrete k-point grid and not necessarily exact.
  | For converged numbers, create a DOS and/or band structure plot on a denser k-grid.

  Highest occupied state (VBM) at     -7.47574275 eV (relative to internal zero)
  | Occupation number:      1.73578173
  | K-point:      27 at    0.000000    0.500000    0.500000 (in units of recip. lattice)

  Lowest unoccupied state (CBM) at    -7.45882211 eV (relative to internal zero)
  | Occupation number:      0.20179201
  | K-point:     206 at    0.500000    0.500000    0.875000 (in units of recip. lattice)

  ESTIMATED overall HOMO-LUMO gap:      0.01692063 eV between HOMO at k-point 27 and LUMO at k-point 206
  | This appears to be an indirect band gap.
  | Smallest direct gap :      0.05852957 eV for k_point 242 at    0.750000    0.750000    0.875000 (in units of recip. lattice)
  However, this system has fractional occupation numbers. Since we use a finite k-point grid,
  this material is metallic within the approximate finite broadening function (occupation_type)
  applied to determine the occupation numbers.

  Total energy components:
  | Sum of eigenvalues            :       -1198.34433081 Ha      -32608.60834904 eV
  | XC energy correction          :        -118.77100134 Ha       -3231.92338494 eV
  | XC potential correction       :         153.60568761 Ha        4179.82342707 eV
  | Free-atom electrostatic energy:        -849.32198839 Ha      -23111.22719046 eV
  | Hartree energy correction     :          -0.43311552 Ha         -11.78567297 eV
  | Entropy correction            :          -0.00000055 Ha          -0.00001488 eV
  | ---------------------------
  | Total energy                  :       -2013.26474845 Ha      -54783.72117035 eV
  | Total energy, T -> 0          :       -2013.26474900 Ha      -54783.72118523 eV  <-- do not rely on this value for anything but (periodic) metals
  | Electronic free energy        :       -2013.26474954 Ha      -54783.72120011 eV

  Derived energy quantities:
  | Kinetic energy                :        2029.40633278 Ha       55222.95602798 eV
  | Electrostatic energy          :       -3923.90007989 Ha     -106774.75381339 eV
  | Energy correction for multipole
  | error in Hartree potential    :          -0.00039394 Ha          -0.01071969 eV
  | Sum of eigenvalues per atom                           :       -5434.76805817 eV
  | Total energy (T->0) per atom                          :       -9130.62019754 eV  <-- do not rely on this value for anything but (periodic) metals
  | Electronic free energy per atom                       :       -9130.62020002 eV
  Evaluating new KS density using the density matrix
  Evaluating density matrix
  Time summed over all CPUs for getting density from density matrix: real work      107.242 s, elapsed      111.831 s
  Integration grid: deviation in total charge (<rho> - N_e) =   4.263256E-14

  Self-consistency convergence accuracy:
  | Change of charge density      :  0.8429E+00
  | Change of unmixed KS density  :  0.7220E+02
  | Change of sum of eigenvalues  :  0.1533E+02 eV
  | Change of total energy        :  0.4173E+01 eV


------------------------------------------------------------
  End self-consistency iteration #     1       :  max(cpu_time)    wall_clock(cpu1)
  | Time for this iteration                     :        7.640 s           7.640 s
  | Charge density update                       :        4.716 s           4.716 s
  | Density mixing                              :        0.000 s           0.000 s
  | Hartree multipole update                    :        0.002 s           0.002 s
  | Hartree multipole summation                 :        0.139 s           0.140 s
  | Integration                                 :        2.440 s           2.440 s
  | Solution of K.-S. eqns.                     :        0.341 s           0.341 s
  | Total energy evaluation                     :        0.001 s           0.000 s

  Partial memory accounting:
  | Current value for overall tracked memory usage:
  |   Minimum:       31.341 MB (on task 21)
  |   Maximum:       31.601 MB (on task  9)
  |   Average:       31.546 MB
  | Peak value for overall tracked memory usage:
  |   Minimum:       67.079 MB (on task  2 after allocating gradient_basis_wave)
  |   Maximum:       69.796 MB (on task  9 after allocating gradient_basis_wave)
  |   Average:       68.402 MB
  | Largest tracked array allocation so far:
  |   Minimum:       25.971 MB (hamiltonian_shell on task  2)
  |   Maximum:       28.242 MB (hamiltonian_shell on task  9)
  |   Average:       27.107 MB
  Note:  These values currently only include a subset of arrays which are explicitly tracked.
  The "true" memory usage will be greater.
------------------------------------------------------------

------------------------------------------------------------
          Begin self-consistency iteration #    2

  Date     :  20240708, Time     :  013738.751
------------------------------------------------------------
  Pulay mixing of updated and previous charge densities.
  Available memory per node after mixing [GB]:    354.01
  Renormalizing the density to the exact electron count on the 3D integration grid.
  | Formal number of electrons (from input files) :      76.0000000000
  | Integrated number of electrons on 3D grid     :      76.0000000000
  | Charge integration error                      :       0.0000000000
  | Normalization factor for density and gradient :       1.0000000000

  Evaluating partitioned Hartree potential by multipole expansion.
  | Original multipole sum: apparent total charge =  -0.858584E-13
  | Sum of charges compensated after spline to logarithmic grids =  -0.236862E-06
  | Analytical far-field extrapolation by fixed multipoles:
  | Hartree multipole sum: apparent total charge =  -0.868054E-13
  Summing up the Hartree potential.
  Time summed over all CPUs for potential: real work        0.125 s, elapsed        0.133 s
  | RMS charge density error from multipole expansion :   0.298624E-02
  | Average real-space part of the electrostatic potential :      0.35290826 eV

  Integrating Hamiltonian matrix: batch-based integration.
  Time summed over all CPUs for integration: real work       54.896 s, elapsed       58.774 s

  Updating Kohn-Sham eigenvalues and eigenvectors using ELSI and the (modified) LAPACK eigensolver.
  Starting LAPACK eigensolver
  Finished Cholesky decomposition
  | Time :     0.003 s
  Finished transformation to standard eigenproblem
  | Time :     0.004 s
  Finished solving standard eigenproblem
  | Time :     0.011 s
  Finished back-transformation of eigenvectors
  | Time :     0.001 s

  Obtaining occupation numbers and electronic chemical potential using ELSI.
  | Note that, for insulating systems, the printed 'chemical potential' value is not uniquely defined.
  | It can be anywhere in the energy gap, as long as it correctly separates occupied and unoccupied states.
  | In systems with a gap, the physically relevant chemical potential is the VBM or HOMO.

  | Chemical potential (Fermi level):    -7.97021045 eV
  What follows are estimated values for band gap, HOMO, LUMO, etc.
  | They are estimated on a discrete k-point grid and not necessarily exact.
  | For converged numbers, create a DOS and/or band structure plot on a denser k-grid.

  Highest occupied state (VBM) at     -7.97621535 eV (relative to internal zero)
  | Occupation number:      1.60424182
  | K-point:     116 at    0.250000    0.625000    0.500000 (in units of recip. lattice)

  Lowest unoccupied state (CBM) at    -7.96470580 eV (relative to internal zero)
  | Occupation number:      0.43628866
  | K-point:     169 at    0.375000    0.750000    0.375000 (in units of recip. lattice)

  ESTIMATED overall HOMO-LUMO gap:      0.01150956 eV between HOMO at k-point 116 and LUMO at k-point 169
  | This appears to be an indirect band gap.
  | Smallest direct gap :      0.26419913 eV for k_point 116 at    0.250000    0.625000    0.500000 (in units of recip. lattice)
  However, this system has fractional occupation numbers. Since we use a finite k-point grid,
  this material is metallic within the approximate finite broadening function (occupation_type)
  applied to determine the occupation numbers.

  Checking to see if s.c.f. parameters should be adjusted.
  Adjusted the Pulay mixing parameter (charge_mix_param) for an expected low-gap system. New value:   0.020000 .
  Adjusted the occupation broadening width for an expected low-gap system. New value:      0.05000000 eV.

  Total energy components:
  | Sum of eigenvalues            :       -1197.22105087 Ha      -32578.04234665 eV
  | XC energy correction          :        -118.97506780 Ha       -3237.47631584 eV
  | XC potential correction       :         153.86832647 Ha        4186.97019390 eV
  | Free-atom electrostatic energy:        -849.32198839 Ha      -23111.22719046 eV
  | Hartree energy correction     :          -1.45250650 Ha         -39.52471299 eV
  | Entropy correction            :          -0.00003379 Ha          -0.00091954 eV
  | ---------------------------
  | Total energy                  :       -2013.10228710 Ha      -54779.30037204 eV
  | Total energy, T -> 0          :       -2013.10232089 Ha      -54779.30129158 eV  <-- do not rely on this value for anything but (periodic) metals
  | Electronic free energy        :       -2013.10235468 Ha      -54779.30221111 eV

  Derived energy quantities:
  | Kinetic energy                :        2030.78974418 Ha       55260.60056767 eV
  | Electrostatic energy          :       -3924.91696348 Ha     -106802.42462388 eV
  | Energy correction for multipole
  | error in Hartree potential    :          -0.00140760 Ha          -0.03830286 eV
  | Sum of eigenvalues per atom                           :       -5429.67372444 eV
  | Total energy (T->0) per atom                          :       -9129.88354860 eV  <-- do not rely on this value for anything but (periodic) metals
  | Electronic free energy per atom                       :       -9129.88370185 eV
  Evaluating new KS density using the density matrix
  Evaluating density matrix
  Time summed over all CPUs for getting density from density matrix: real work      107.011 s, elapsed      111.269 s
  Integration grid: deviation in total charge (<rho> - N_e) =  -2.842171E-14

  Self-consistency convergence accuracy:
  | Change of charge density      :  0.6483E+00
  | Change of unmixed KS density  :  0.1931E+00
  | Change of sum of eigenvalues  :  0.3057E+02 eV
  | Change of total energy        :  0.4421E+01 eV


------------------------------------------------------------
  End self-consistency iteration #     2       :  max(cpu_time)    wall_clock(cpu1)
  | Time for this iteration                     :        7.639 s           7.639 s
  | Charge density update                       :        4.688 s           4.689 s
  | Density mixing                              :        0.001 s           0.001 s
  | Hartree multipole update                    :        0.003 s           0.002 s
  | Hartree multipole summation                 :        0.138 s           0.138 s
  | Integration                                 :        2.471 s           2.472 s
  | Solution of K.-S. eqns.                     :        0.337 s           0.336 s
  | Total energy evaluation                     :        0.000 s           0.000 s

  Partial memory accounting:
  | Current value for overall tracked memory usage:
  |   Minimum:       31.341 MB (on task 21)
  |   Maximum:       31.602 MB (on task  9)
  |   Average:       31.546 MB
  | Peak value for overall tracked memory usage:
  |   Minimum:       67.080 MB (on task  2 after allocating gradient_basis_wave)
  |   Maximum:       69.797 MB (on task  9 after allocating gradient_basis_wave)
  |   Average:       68.402 MB
  | Largest tracked array allocation so far:
  |   Minimum:       25.971 MB (hamiltonian_shell on task  2)
  |   Maximum:       28.242 MB (hamiltonian_shell on task  9)
  |   Average:       27.107 MB
  Note:  These values currently only include a subset of arrays which are explicitly tracked.
  The "true" memory usage will be greater.
------------------------------------------------------------

------------------------------------------------------------
          Begin self-consistency iteration #    3

  Date     :  20240708, Time     :  013746.390
------------------------------------------------------------
  Pulay mixing of updated and previous charge densities.
  Available memory per node after mixing [GB]:    354.01
  Renormalizing the density to the exact electron count on the 3D integration grid.
  | Formal number of electrons (from input files) :      76.0000000000
  | Integrated number of electrons on 3D grid     :      76.0000000000
  | Charge integration error                      :       0.0000000000
  | Normalization factor for density and gradient :       1.0000000000

  Evaluating partitioned Hartree potential by multipole expansion.
  | Original multipole sum: apparent total charge =  -0.647535E-13
  | Sum of charges compensated after spline to logarithmic grids =  -0.208757E-06
  | Analytical far-field extrapolation by fixed multipoles:
  | Hartree multipole sum: apparent total charge =  -0.646060E-13
  Summing up the Hartree potential.
  Time summed over all CPUs for potential: real work        0.126 s, elapsed        0.135 s
  | RMS charge density error from multipole expansion :   0.315823E-02
  | Average real-space part of the electrostatic potential :      0.36531805 eV

  Integrating Hamiltonian matrix: batch-based integration.
  Time summed over all CPUs for integration: real work       54.648 s, elapsed       57.329 s

  Updating Kohn-Sham eigenvalues and eigenvectors using ELSI and the (modified) LAPACK eigensolver.
  Starting LAPACK eigensolver
  Finished Cholesky decomposition
  | Time :     0.003 s
  Finished transformation to standard eigenproblem
  | Time :     0.003 s
  Finished solving standard eigenproblem
  | Time :     0.012 s
  Finished back-transformation of eigenvectors
  | Time :     0.001 s

  Obtaining occupation numbers and electronic chemical potential using ELSI.
  | Note that, for insulating systems, the printed 'chemical potential' value is not uniquely defined.
  | It can be anywhere in the energy gap, as long as it correctly separates occupied and unoccupied states.
  | In systems with a gap, the physically relevant chemical potential is the VBM or HOMO.

  | Chemical potential (Fermi level):    -7.77099680 eV
  What follows are estimated values for band gap, HOMO, LUMO, etc.
  | They are estimated on a discrete k-point grid and not necessarily exact.
  | For converged numbers, create a DOS and/or band structure plot on a denser k-grid.

  Highest occupied state (VBM) at     -7.78166456 eV (relative to internal zero)
  | Occupation number:      1.23714187
  | K-point:     116 at    0.250000    0.625000    0.500000 (in units of recip. lattice)

  Lowest unoccupied state (CBM) at    -7.75754044 eV (relative to internal zero)
  | Occupation number:      0.70349754
  | K-point:     133 at    0.375000    0.000000    0.375000 (in units of recip. lattice)

  ESTIMATED overall HOMO-LUMO gap:      0.02412412 eV between HOMO at k-point 116 and LUMO at k-point 133
  | This appears to be an indirect band gap.
[...]
  |                                                                   |
  +-------------------------------------------------------------------+

 * Warning: Stress tensor is anisotropic. Be aware that pressure is an isotropic quantity.


  Self-consistency convergence accuracy:
  | Change of charge density      :  0.1369E-07
  | Change of unmixed KS density  :  0.2107E-07
  | Change of sum of eigenvalues  : -0.3770E-06 eV
  | Change of total energy        : -0.2475E-10 eV
  | Change of forces              :  0.2150E-05 eV/A

  Writing Kohn-Sham eigenvalues.
  K-point:       1 at    0.000000    0.000000    0.000000 (in units of recip. lattice)

  State    Occupation    Eigenvalue [Ha]    Eigenvalue [eV]
      1       2.00000        -180.107499        -4900.97441
      2       2.00000        -180.107470        -4900.97363
      3       2.00000         -19.903352         -541.59777
      4       2.00000         -19.903325         -541.59704
      5       2.00000         -18.891782         -514.07155
      6       2.00000         -18.891782         -514.07155
      7       2.00000         -18.891763         -514.07101
      8       2.00000         -18.891763         -514.07101
      9       2.00000         -16.490605         -448.73220
     10       2.00000         -16.490579         -448.73149
     11       2.00000         -16.490519         -448.72985
     12       2.00000         -16.490491         -448.72910
     13       2.00000         -16.490410         -448.72690
     14       2.00000         -16.490384         -448.72617
     15       2.00000          -2.433733          -66.22524
     16       2.00000          -2.433198          -66.21068
     17       2.00000          -1.562432          -42.51592
     18       2.00000          -1.562413          -42.51542
     19       2.00000          -1.556925          -42.36608
     20       2.00000          -1.556921          -42.36599
     21       2.00000          -1.555415          -42.32499
     22       2.00000          -1.554351          -42.29603
     23       2.00000          -1.005452          -27.35974
     24       2.00000          -0.963971          -26.23097
     25       2.00000          -0.938687          -25.54296
     26       2.00000          -0.938656          -25.54212
     27       2.00000          -0.548474          -14.92472
     28       2.00000          -0.532487          -14.48971
     29       2.00000          -0.515236          -14.02027
     30       2.00000          -0.477479          -12.99286
     31       2.00000          -0.477412          -12.99104
     32       2.00000          -0.433132          -11.78612
     33       2.00000          -0.433104          -11.78536
     34       2.00000          -0.410243          -11.16328
     35       2.00000          -0.365297           -9.94023
     36       2.00000          -0.356740           -9.70739
     37       2.00000          -0.356726           -9.70700
     38       2.00000          -0.341079           -9.28123
     39       0.00000          -0.273558           -7.44389
     40       0.00000          -0.262970           -7.15579
     41       0.00000          -0.253126           -6.88790
     42       0.00000          -0.250464           -6.81547
     43       0.00000          -0.250448           -6.81504
     44       0.00000          -0.186037           -5.06232
     45       0.00000          -0.177229           -4.82265
     46       0.00000          -0.103028           -2.80353
     47       0.00000          -0.103008           -2.80299
     48       0.00000          -0.070569           -1.92029
     49       0.00000          -0.055235           -1.50302
     50       0.00000           0.094270            2.56523
     51       0.00000           0.094296            2.56594
     52       0.00000           0.188699            5.13476
     53       0.00000           0.242271            6.59253
     54       0.00000           0.284349            7.73752
     55       0.00000           0.316939            8.62435
     56       0.00000           0.371409           10.10657
     57       0.00000           0.371513           10.10939
     58       0.00000           0.443940           12.08021
     59       0.00000           0.445010           12.10934
     60       0.00000           0.533162           14.50806
     61       0.00000           0.579114           15.75850

  What follows are estimated values for band gap, HOMO, LUMO, etc.
  | They are estimated on a discrete k-point grid and not necessarily exact.
  | For converged numbers, create a DOS and/or band structure plot on a denser k-grid.

  Highest occupied state (VBM) at     -9.28123246 eV (relative to internal zero)
  | Occupation number:      2.00000000
  | K-point:       1 at    0.000000    0.000000    0.000000 (in units of recip. lattice)

  Lowest unoccupied state (CBM) at    -7.44388755 eV (relative to internal zero)
  | Occupation number:      0.00000000
  | K-point:       1 at    0.000000    0.000000    0.000000 (in units of recip. lattice)

  ESTIMATED overall HOMO-LUMO gap:      1.83734492 eV between HOMO at k-point 1 and LUMO at k-point 1
  | This appears to be a direct band gap.
  The gap value is above 0.2 eV. Unless you are using a very sparse k-point grid,
  this system is most likely an insulator or a semiconductor.

  | Chemical Potential                          :    -8.24898389 eV
  | Note that, for insulating systems, the printed 'chemical potential' value is not uniquely defined.
  | It can be anywhere in the energy gap, as long as it correctly separates occupied and unoccupied states.
  | In systems with a gap, the physically relevant chemical potential is the VBM or HOMO.

  Self-consistency cycle converged.


------------------------------------------------------------
  End self-consistency iteration #    10       :  max(cpu_time)    wall_clock(cpu1)
  | Time for this iteration                     :      214.698 s         214.706 s
  | Charge density & force component update     :      207.914 s         207.922 s
  | Density mixing                              :        0.003 s           0.003 s
  | Hartree multipole update                    :        0.004 s           0.003 s
  | Hartree multipole summation                 :        0.905 s           0.906 s
  | Hartree pot. SCF incomplete forces          :        0.947 s           0.947 s
  | Integration                                 :        4.553 s           4.553 s
  | Solution of K.-S. eqns.                     :        0.371 s           0.370 s
  | Total energy evaluation                     :        0.000 s           0.001 s

  Partial memory accounting:
  | Current value for overall tracked memory usage:
  |   Minimum:       32.942 MB (on task 21)
  |   Maximum:       33.424 MB (on task  2)
  |   Average:       33.324 MB
  | Peak value for overall tracked memory usage:
  |   Minimum:       89.779 MB (on task 12 after allocating d_wave)
  |   Maximum:       93.019 MB (on task  9 after allocating d_wave)
  |   Average:       91.274 MB
  | Largest tracked array allocation so far:
  |   Minimum:       26.225 MB (hamiltonian_shell on task  7)
  |   Maximum:       28.242 MB (hamiltonian_shell on task  9)
  |   Average:       27.135 MB
  Note:  These values currently only include a subset of arrays which are explicitly tracked.
  The "true" memory usage will be greater.
------------------------------------------------------------
  Removing unitary transformations (pure translations, rotations) from forces on atoms.
  Atomic forces before filtering:
  | Net force on center of mass :   0.518384E-07 -0.672164E-08  0.141074E-06 eV/A
  Atomic forces after filtering:
  | Net force on center of mass :   0.348449E-18  0.000000E+00 -0.531692E-22 eV/A

  Energy and forces in a compact form:
  | Total energy uncorrected      :         -0.548013394357565E+05 eV
  | Total energy corrected        :         -0.548013394357565E+05 eV  <-- do not rely on this value for anything but (periodic) metals
  | Electronic free energy        :         -0.548013394357565E+05 eV
  Total atomic forces (unitary forces cleaned) [eV/Ang]:
  |    1          0.314962313184333E-06         -0.145021881899607E-06          0.194818692390851E-06
  |    2         -0.230967436858838E-06          0.888712787153925E-07         -0.181929193336263E-07
  |    3          0.341237146203322E-03          0.340802958754828E-03         -0.307275085106152E-07
  |    4         -0.341238684518500E-03         -0.340809057120989E-03         -0.287390440485965E-07
  |    5         -0.120315711730515E-02          0.120298469107585E-02         -0.598224728596607E-07
  |    6          0.120307466074400E-02         -0.120292244210651E-02         -0.573367476383523E-07

  ------------------------------------ 
  Start decomposition of the XC Energy 
  ------------------------------------ 
  X and C from original XC functional choice 
  Hartree-Fock Energy :          0.000000000 Ha              0.000000000 eV
  X Energy            :       -115.626267177 Ha          -3146.350814449 eV
  C Energy            :         -3.011544075 Ha            -81.948283761 eV
  XC Energy w/o HF    :       -118.637811252 Ha          -3228.299098210 eV
  Total XC Energy     :       -118.637811252 Ha          -3228.299098210 eV
  ------------------------------------ 
  LDA X and C from self-consistent density 
  X Energy LDA        :       -107.338526640 Ha          -2920.829920057 eV
  C Energy LDA        :         -5.872252977 Ha           -159.792133639 eV
  ------------------------------------ 
  End decomposition of the XC Energy 
  ------------------------------------ 

------------------------------------------------------------
  Relaxation / MD: End force evaluation.       :  max(cpu_time)    wall_clock(cpu1)
  | Time for this force evaluation              :      347.018 s         347.038 s

------------------------------------------------------------
  Geometry optimization: Attempting to predict improved coordinates.

  +-------------------------------------------------------------------+
  | Generalized derivatives on lattice vectors [eV/A]                 |
  +-------------------------------------------------------------------+
  |lattice_vector       0.00129459       0.00221836      -0.00000000  |
  |lattice_vector       0.00221836       0.00129430       0.00000000  |
  |lattice_vector      -0.00000000       0.00000000      -0.00383644  |
  +-------------------------------------------------------------------+
  | Forces on lattice vectors cleaned from atomic contributions [eV/A]|
  +-------------------------------------------------------------------+
  |lattice_vector      -0.00129459      -0.00221836       0.00000000  |
  |lattice_vector      -0.00221836      -0.00129430      -0.00000000  |
  |lattice_vector       0.00000000      -0.00000000       0.00383644  |
  +-------------------------------------------------------------------+
  Removing unitary transformations (pure translations, rotations) from forces on atoms.
  Atomic forces before filtering:
  | Net force on center of mass :   0.348449E-18  0.000000E+00 -0.531692E-22 eV/A
  Atomic forces after filtering:
  | Net force on center of mass :   0.174225E-18  0.174225E-18 -0.319015E-22 eV/A
  Net remaining forces (excluding translations, rotations) in present geometry:
  || Forces on atoms   || =   0.120316E-02 eV/A.
  || Forces on lattice || =   0.383644E-02 eV/A^3.
  Maximum force component is  0.383644E-02 eV/A.
  Present geometry is converged.

------------------------------------------------------------
  Final atomic structure:
                         x [A]             y [A]             z [A]
  lattice_vector         4.64234200        0.00028029        0.00000000
  lattice_vector         0.00028031        4.64234352       -0.00000000
  lattice_vector         0.00000000        0.00000000        2.96302733

            atom        -0.00000001        0.00000001        0.00000007  Ti
            atom         2.32131116        2.32131191        1.48151365  Ti
            atom         1.41677294        1.41677420       -0.00000001  O
            atom         3.22584937        3.22584962       -0.00000001  O
            atom         0.90473002        3.73789429        1.48151365  O
            atom         3.73789230        0.90472952        1.48151365  O

  Fractional coordinates:
                         L1                L2                L3
       atom_frac        -0.00000000        0.00000000        0.00000002  Ti
       atom_frac         0.50000000        0.50000000        0.49999999  Ti
       atom_frac         0.30516653        0.30516670       -0.00000000  O
       atom_frac         0.69483347        0.69483330       -0.00000000  O
       atom_frac         0.19483793        0.80516223        0.50000000  O
       atom_frac         0.80516207        0.19483777        0.50000000  O
------------------------------------------------------------

------------------------------------------------------------------------------
  Final output of selected total energy values:

  The following output summarizes some interesting total energy values
  at the end of a run (AFTER all relaxation, molecular dynamics, etc.).

  | Total energy of the DFT / Hartree-Fock s.c.f. calculation      :         -54801.339435756 eV
  | Final zero-broadening corrected energy (caution - metals only) :         -54801.339435756 eV
  | For reference only, the value of 1 Hartree used in FHI-aims is :             27.211384500 eV
  | For reference only, the overall average (free atom contribution
  | + realspace contribution) of the electrostatic potential after
  | s.c.f. convergence is                                          :            -17.568811866 eV

  Before relying on these values, please be sure to understand exactly which
  total energy value is referred to by a given number. Different objects may
  all carry the same name 'total energy'. Definitions:

  Total energy of the DFT / Hartree-Fock s.c.f. calculation:
  | Note that this energy does not include ANY quantities calculated after the
  | s.c.f. cycle, in particular not ANY RPA, MP2, etc. many-body perturbation terms.

  Final zero-broadening corrected energy:
  | For metallic systems only, a broadening of the occupation numbers at the Fermi
  | level can be extrapolated back to zero broadening by an electron-gas inspired
  | formula. For all systems that are not real metals, this value can be
  | meaningless and should be avoided.

------------------------------------------------------------------------------
  Methods described in the following list of references were used in this FHI-aims run.
  If you publish the results, please make sure to cite these reference if they apply.
  FHI-aims is an academic code, and for our developers (often, Ph.D. students
  and postdocs), scientific credit in the community is essential.
  Thank you for helping us!

  For any use of FHI-aims, please cite:

    Volker Blum, Ralf Gehrke, Felix Hanke, Paula Havu, Ville Havu,
    Xinguo Ren, Karsten Reuter, and Matthias Scheffler
    'Ab initio molecular simulations with numeric atom-centered orbitals'
    Computer Physics Communications 180, 2175-2196 (2009)
    http://doi.org/10.1016/j.cpc.2009.06.022


  For the analytical stress tensor used in your run, please cite:

    Franz Knuth, Christian Carbogno, Viktor Atalla, Volker Blum, Matthias Scheffler
    'All-electron formalism for total energy strain derivatives and
    stress tensor components for numeric atom-centered orbitals'
    Computer Physics Communications 190, 33-50 (2015).
    http://doi.org/10.1016/j.cpc.2015.01.003


  The provided symmetry information was generated with SPGlib:

    Atsushi Togo, Yusuke Seto, Dimitar Pashov
    SPGlib 1.7.3 obtained from http://spglib.sourceforge.net
    Licence: New BSD license
    Copyright (C) 2008 Atsushi Togo


  The ELSI infrastructure was used in your run to solve the Kohn-Sham electronic structure.
  Please check out https://wordpress.elsi-interchange.org to learn more.
  If scalability is important for your project, please acknowledge ELSI by citing:

    V. W-z. Yu, F. Corsetti, A. Garcia, W. P. Huhn, M. Jacquelin, W. Jia,
    B. Lange, L. Lin, J. Lu, W. Mi, A. Seifitokaldani, A. Vazquez-Mayagoitia,
    C. Yang, H. Yang, and V. Blum
    'ELSI: A unified software interface for Kohn-Sham electronic structure solvers'
    Computer Physics Communications 222, 267-285 (2018).
    http://doi.org/10.1016/j.cpc.2017.09.007


  For the real-space grid partitioning and parallelization used in this calculation, please cite:

    Ville Havu, Volker Blum, Paula Havu, and Matthias Scheffler,
    'Efficient O(N) integration for all-electron electronic structure calculation'
    'using numerically tabulated basis functions'
    Journal of Computational Physics 228, 8367-8379 (2009).
    http://doi.org/10.1016/j.jcp.2009.08.008

  Of course, there are many other important community references, e.g., those cited in the
  above references. Our list is limited to references that describe implementations in the
  FHI-aims code. The reason is purely practical (length of this list) - please credit others as well.

------------------------------------------------------------
          Leaving FHI-aims.
          Date     :  20240708, Time     :  030900.354

          Computational steps:
          | Number of self-consistency cycles          :          195
          | Number of SCF (re)initializations          :           11
          | Number of relaxation steps                 :           10

          Detailed time accounting                     :  max(cpu_time)    wall_clock(cpu1)
          | Total time                                  :     5499.827 s        5500.039 s
          | Preparation time                            :        0.282 s           0.282 s
          | Boundary condition initalization            :        1.316 s           1.077 s
          | Grid partitioning                           :        0.785 s           0.786 s
          | Preloading free-atom quantities on grid     :        7.564 s           7.567 s
          | Free-atom superposition energy              :        0.530 s           0.529 s
          | Total time for integrations                 :      988.681 s         988.701 s
          | Total time for solution of K.-S. equations  :       84.170 s          84.178 s
          | Total time for EV reorthonormalization      :        0.938 s           0.529 s
          | Total time for density & force components   :     4343.094 s        4343.257 s
          | Total time for mixing                       :        0.354 s           0.357 s
          | Total time for Hartree multipole update     :        0.694 s           0.690 s
          | Total time for Hartree multipole sum        :       49.282 s          49.295 s
          | Total time for total energy evaluation      :        0.095 s           0.101 s
          | Total time NSC force correction             :       21.323 s          21.329 s
          | Total time for scaled ZORA corrections      :        0.000 s           0.000 s

          Partial memory accounting:
          | Residual value for overall tracked memory usage across tasks:     0.000000 MB (should be 0.000000 MB)
          | Peak values for overall tracked memory usage:
          |   Minimum:       89.779 MB (on task 12 after allocating d_wave)
          |   Maximum:       93.019 MB (on task  9 after allocating d_wave)
          |   Average:       91.274 MB
          | Largest tracked array allocation:
          |   Minimum:       26.225 MB (hamiltonian_shell on task  7)
          |   Maximum:       28.242 MB (hamiltonian_shell on task  9)
          |   Average:       27.135 MB
          Note:  These values currently only include a subset of arrays which are explicitly tracked.
          The "true" memory usage will be greater.

          Have a nice day.
------------------------------------------------------------
