------------------------------------------------------------
          Invoking FHI-aims ...

          When using FHI-aims, please cite the following reference:

            Volker Blum, Ralf Gehrke, Felix Hanke, Paula Havu,
            Ville Havu, Xinguo Ren, Karsten Reuter, and Matthias Scheffler,
            'Ab Initio Molecular Simulations with Numeric Atom-Centered Orbitals',
            Computer Physics Communications 180, 2175-2196 (2009)

          In addition, many other developments in FHI-aims are likely important for
          your particular application. If so, please cite them. A partial list of references
          is written at the end of this file. Thank you for giving credit to the authors
          of these developments.

          For general information about FHI-aims please find us at

            https://fhi-aims.org

          Online tutorials can be found at

            https://fhi-aims-club.gitlab.io/tutorials/tutorials-overview/

          For any questions about FHI-aims, please visit our slack channel at

            https://fhi-aims.slack.com

          and our main development and support site at

            https://aims-git.rz-berlin.mpg.de .

          The latter site, in particular, has a wiki to collect information, as well
          as an issue tracker to log discussions, suggest improvements, and report issues
          or bugs. https://aims-git.rz-berlin.mpg.de is also the main development site
          of the project and all new and updated code versions can be obtained there.
          Please send an email to aims-coordinators@fhi-berlin.mpg.de and we will add
          you to these sites. They are for you and everyone is welcome there.

------------------------------------------------------------



  Date     :  20241014, Time     :  145618.428
  Time zero on CPU 1             :   0.438804000000000E+00  s.
  Internal wall clock time zero  :           498149778.428  s.

  FHI-aims created a unique identifier for this run for later identification
  aims_uuid : 46E19EEC-9233-45F9-A381-D9A857B7091A

  Build configuration of the current instance of FHI-aims
  -------------------------------------------------------
  FHI-aims version      : 240605
  Commit number         : b001b2e18
  CMake host system     : Linux-6.5.0-41-generic
  CMake version         : 3.22.1
  Fortran compiler      : /opt/intel/oneapi/mpi/2021.12/bin/mpiifort (IntelLLVM) version 2024.1.0
  Fortran compiler flags: -fc=ifx -O3 -ip -fp-model precise
  C compiler            : /opt/intel/oneapi/mpi/2021.12/bin/mpiicc (IntelLLVM) version 2024.1.0
  C compiler flags      : -cc=icx -O3 -ip -fp-model precise -std=gnu99
  C++ compiler          : /opt/intel/oneapi/mpi/2021.12/bin/mpiicpc (IntelLLVM) version 2024.1.0
  C++ compiler flags    : -cxx=icpx -O3 -ip -fp-model precise -std=c++11
  HIP compiler          :
  HIP compiler flags    :
  HIP GPU arch          :
  Using MPI
  Using ScaLAPACK
  Using LibXC
  Using i-PI
  Using RLSY
  Linking against: /opt/intel/oneapi/mkl/2024.1/lib/intel64/libmkl_intel_lp64.so
                   /opt/intel/oneapi/mkl/2024.1/lib/intel64/libmkl_sequential.so
                   /opt/intel/oneapi/mkl/2024.1/lib/intel64/libmkl_core.so
                   /opt/intel/oneapi/mkl/2024.1/lib/intel64/libmkl_blacs_intelmpi_lp64.so
                   /opt/intel/oneapi/mkl/2024.1/lib/intel64/libmkl_scalapack_lp64.so
                   /opt/intel/oneapi/mkl/2024.1/lib/intel64/libmkl_core.so

  Using       32 parallel tasks.
  Task        0 on host RSL-arvutus reporting.
  Task        1 on host RSL-arvutus reporting.
  Task        2 on host RSL-arvutus reporting.
  Task        3 on host RSL-arvutus reporting.
  Task        4 on host RSL-arvutus reporting.
  Task        5 on host RSL-arvutus reporting.
  Task        6 on host RSL-arvutus reporting.
  Task        7 on host RSL-arvutus reporting.
  Task        8 on host RSL-arvutus reporting.
  Task        9 on host RSL-arvutus reporting.
  Task       10 on host RSL-arvutus reporting.
  Task       11 on host RSL-arvutus reporting.
  Task       12 on host RSL-arvutus reporting.
  Task       13 on host RSL-arvutus reporting.
  Task       14 on host RSL-arvutus reporting.
  Task       15 on host RSL-arvutus reporting.
  Task       16 on host RSL-arvutus reporting.
  Task       17 on host RSL-arvutus reporting.
  Task       18 on host RSL-arvutus reporting.
  Task       19 on host RSL-arvutus reporting.
  Task       20 on host RSL-arvutus reporting.
  Task       21 on host RSL-arvutus reporting.
  Task       22 on host RSL-arvutus reporting.
  Task       23 on host RSL-arvutus reporting.
  Task       24 on host RSL-arvutus reporting.
  Task       25 on host RSL-arvutus reporting.
  Task       26 on host RSL-arvutus reporting.
  Task       27 on host RSL-arvutus reporting.
  Task       28 on host RSL-arvutus reporting.
  Task       29 on host RSL-arvutus reporting.
  Task       30 on host RSL-arvutus reporting.
  Task       31 on host RSL-arvutus reporting.

  Memory overcommitment is allowed on your operating system.

  Obtaining array dimensions for all initial allocations:
  
  -----------------------------------------------------------------------
  Parsing control.in (first pass over file, find array dimensions only).
  The contents of control.in will be repeated verbatim below
  unless switched off by setting 'verbatim_writeout .false.' .
  in the first line of control.in .
  -----------------------------------------------------------------------
  
    xc              pbe
    relativistic    atomic_zora scalar
    k_grid          4 8 2
  
    spin            none
  
    charge	  1.0
    output          Mulliken
  
  
  ################################################################################
  #
  #  FHI-aims code project
  #  VB, Fritz-Haber Institut, 2009
  #
  #  Suggested "light" defaults for Ti atom (to be pasted into control.in file)
  #  Be sure to double-check any results obtained with these settings for post-processing,
  #  e.g., with the "tight" defaults and larger basis sets.
  #
  ################################################################################
    species        Ti
  #     global species definitions
      nucleus             22
      mass                47.867
  #
      l_hartree           4
  #
      cut_pot             3.5          1.5  1.0
      basis_dep_cutoff    1e-4
  #
      radial_base         48 5.0
      radial_multiplier   1
      angular_grids       specified
        division   0.5171   50
        division   0.9824  110
        division   1.2917  194
        division   1.4940  302
  #      division   1.6934  434
  #      division   1.8425  590
  #      division   2.1901  770
  #      division   2.2896  974
  #      division   2.8244 1202
  #      outer_grid  974
        outer_grid  302
  ################################################################################
  #
  #  Definition of "minimal" basis
  #
  ################################################################################
  #     valence basis states
      valence      4  s   2.
      valence      3  p   6.
      valence      3  d   2.
  #     ion occupancy
      ion_occ      4  s   1.
      ion_occ      3  p   6.
      ion_occ      3  d   1.
  ################################################################################
  #
  #  Suggested additional basis functions. For production calculations,
  #  uncomment them one after another (the most important basis functions are
  #  listed first).
  #
  #  Constructed for dimers: 1.6 A, 1.85 A, 2.5 A, 3.25 A, 4.25 A
  #
  ################################################################################
  #  "First tier" - improvements: -396.25 meV to -19.41 meV
       hydro 4 f 8
       hydro 3 d 2.7
       ionic 4 p auto
  #     hydro 5 g 11.6
       ionic 4 s auto
  #  "Second tier" - improvements: -16.30 meV to -2.03 meV
  #     hydro 3 d 4.4
  #     hydro 6 h 16
  #     hydro 4 f 9.4
  #     hydro 4 p 4.5
  #     hydro 1 s 0.5
  #  "Third tier" - improvements: -6.28 meV to -0.37 meV
  #     hydro 4 d 6.4
  #     hydro 4 f 10
  #     hydro 5 g 12
  #     hydro 2 p 1.7
  #     hydro 6 h 16.4
  #     hydro 4 s 3.8
  #  Further basis functions: -0.45 meV and smaller improvements
  #     hydro 3 d 8.8
  #     hydro 5 p 18
  #     hydro 4 f 22.4
  #     hydro 5 f 7.2  # -0.16 meV
  #     hydro 3 d 2.1  # -0.11 meV
  #     hydro 5 g 7.4  # -0.09 meV
  
  
  ################################################################################
  #
  #  FHI-aims code project
  #  VB, Fritz-Haber Institut, 2009
  #
  #  Suggested "light" defaults for O atom (to be pasted into control.in file)
  #  Be sure to double-check any results obtained with these settings for post-processing,
  #  e.g., with the "tight" defaults and larger basis sets.
  #
  ################################################################################
    species        O
  #     global species definitions
      nucleus             8
      mass                15.9994
  #
      l_hartree           4
  #
      cut_pot             3.5  1.5  1.0
      basis_dep_cutoff    1e-4
  #
      radial_base         36 5.0
      radial_multiplier   1
       angular_grids specified
        division   0.2659   50
        division   0.4451  110
        division   0.6052  194
        division   0.7543  302
  #      division   0.8014  434
  #      division   0.8507  590
  #      division   0.8762  770
  #      division   0.9023  974
  #      division   1.2339 1202
  #      outer_grid 974
        outer_grid 302
  ################################################################################
  #
  #  Definition of "minimal" basis
  #
  ################################################################################
  #     valence basis states
      valence      2  s   2.
      valence      2  p   4.
  #     ion occupancy
      ion_occ      2  s   1.
      ion_occ      2  p   3.
  ################################################################################
  #
  #  Suggested additional basis functions. For production calculations,
  #  uncomment them one after another (the most important basis functions are
  #  listed first).
  #
  #  Constructed for dimers: 1.0 A, 1.208 A, 1.5 A, 2.0 A, 3.0 A
  #
  ################################################################################
  #  "First tier" - improvements: -699.05 meV to -159.38 meV
       hydro 2 p 1.8
       hydro 3 d 7.6
       hydro 3 s 6.4
  #  "Second tier" - improvements: -49.91 meV to -5.39 meV
  #     hydro 4 f 11.6
  #     hydro 3 p 6.2
  #     hydro 3 d 5.6
  #     hydro 5 g 17.6
  #     hydro 1 s 0.75
  #  "Third tier" - improvements: -2.83 meV to -0.50 meV
  #     ionic 2 p auto
  #     hydro 4 f 10.8
  #     hydro 4 d 4.7
  #     hydro 2 s 6.8
  #  "Fourth tier" - improvements: -0.40 meV to -0.12 meV
  #     hydro 3 p 5
  #     hydro 3 s 3.3
  #     hydro 5 g 15.6
  #     hydro 4 f 17.6
  #     hydro 4 d 14
  # Further basis functions - -0.08 meV and below
  #     hydro 3 s 2.1
  #     hydro 4 d 11.6
  #     hydro 3 p 16
  #     hydro 2 s 17.2
  ################################################################################
  #
  #  FHI-aims code project
  #  VB, Fritz-Haber Institut, 2009
  #
  #  Suggested "light" defaults for F atom (to be pasted into control.in file)
  #  Be sure to double-check any results obtained with these settings for post-processing,
  #  e.g., with the "tight" defaults and larger basis sets.
  #
  ################################################################################
    species        F
  #     global species definitions
      nucleus             9
      mass                18.9984032
  #
      l_hartree           4
  #
      cut_pot             3.5  1.5  1.0
      basis_dep_cutoff    1e-4
  #
      radial_base         37 5.0
      radial_multiplier   1
      angular_grids specified
        division   0.4014  110
        division   0.5291  194
        division   0.6019  302
  #      division   0.6814  434
  #      division   0.7989  590
  #      division   0.8965  770
  #      division   1.3427  974
  #      outer_grid   974
        outer_grid   302
  ################################################################################
  #
  #  Definition of "minimal" basis
  #
  ################################################################################
  #     valence basis states
      valence      2  s   2.
      valence      2  p   5.
  #     ion occupancy
      ion_occ      2  s   1.
      ion_occ      2  p   4.
  ################################################################################
  #
  #  Suggested additional basis functions. For production calculations,
  #  uncomment them one after another (the most important basis functions are
  #  listed first).
  #
  #  Constructed for dimers: 1.2 A, 1.418 A, 1.75 A, 2.25 A, 3.25 A
  #
  ################################################################################
  #  "First tier" - improvements: -149.44 meV to -45.88 meV
       hydro 2 p 1.7
       hydro 3 d 7.4
       hydro 3 s 6.8
  #  "Second tier" - improvements: -12.96 meV to -1.56 meV
  #     hydro 4 f 11.2
  #     ionic 2 p auto
  #     hydro 1 s 0.75
  #     hydro 4 d 8.8
  #     hydro 5 g 16.8
  #  "Third tier" - improvements: -0.58 meV to -0.05 meV
  #     hydro 3 p 6.2
  #     hydro 3 s 3.2
  #     hydro 4 f 9.6
  #     hydro 3 s 19.6
  #     hydro 4 d 8.6
  #     hydro 5 g 14.4
  # Further basis functions: -0.05 meV and below
  #     hydro 3 p 4.2
  
  -----------------------------------------------------------------------
  Completed first pass over input file control.in .
  -----------------------------------------------------------------------
  
  
  -----------------------------------------------------------------------
  Parsing geometry.in (first pass over file, find array dimensions only).
  The contents of geometry.in will be repeated verbatim below
  unless switched off by setting 'verbatim_writeout .false.' .
  in the first line of geometry.in .
  -----------------------------------------------------------------------
  
  lattice_vector 6.566127 0.000000 0.000000
  lattice_vector 0.000000 2.972883 0.000000
  lattice_vector 0.000000 0.000000 22.332457
  
  atom_frac 0.999994 0.000000 0.368597 O
  atom_frac 0.305556 0.500000 0.425767 O
  atom_frac 0.499997 0.000000 0.425768 Ti
  atom_frac 0.999997 0.500000 0.425768 Ti
  atom_frac 0.694439 0.500000 0.425769 O
  atom_frac 0.000001 0.000000 0.482939 O
  atom_frac 0.499991 0.000000 0.515613 F
  atom_frac 0.805553 0.500000 0.572783 O
  atom_frac 0.999995 0.000000 0.572784 Ti
  atom_frac 0.499995 0.500000 0.572784 Ti
  atom_frac 0.194436 0.500000 0.572786 O
  atom_frac 0.499998 0.000000 0.629955 O
  
  -----------------------------------------------------------------------
  Completed first pass over input file geometry.in .
  -----------------------------------------------------------------------
  

  Basic array size parameters:
  | Number of species                 :        3
  | Number of atoms                   :       12
  | Number of lattice vectors         :        3
  | Max. basis fn. angular momentum   :        3
  | Max. atomic/ionic basis occupied n:        4
  | Max. number of basis fn. types    :        3
  | Max. radial fns per species/type  :        7
  | Max. logarithmic grid size        :     1383
  | Max. radial integration grid size :       48
  | Max. angular integration grid size:      302
  | Max. angular grid division number :        8
  | Radial grid for Hartree potential :     1383
  | Number of spin channels           :        1

------------------------------------------------------------
          Reading file control.in.
------------------------------------------------------------
  XC: Using PBE gradient-corrected functionals.
  Scalar relativistic treatment of kinetic energy: on-site free-atom approximation to ZORA.
  Found k-point grid:         4         8         2
  Spin treatment: No spin polarisation.
  Charged system requested: Charge =   0.100000E+01.
  Mulliken charge analysis will be performed and summarised to the main output.
  Full Mulliken charge analysis will be written to file 'Mulliken.out'.
 
  Reading configuration options for species Ti                  .
  | Found nuclear charge :  22.0000
  | Found atomic mass :    47.8670000000000      amu
  | Found l_max for Hartree potential  :   4
  | Found cutoff potl. onset [A], width [A], scale factor :    3.50000    1.50000    1.00000
  | Threshold for basis-dependent cutoff potential is   0.100000E-03
  | Found data for basic radial integration grid :    48 points, outermost radius =    5.000 A
  | Found multiplier for basic radial grid :   1
  | Found angular grid specification: user-specified.
  | Specified grid contains     5 separate shells.
  | Check grid settings after all constraints further below.
  | Found free-atom valence shell :  4 s   2.000
  | Found free-atom valence shell :  3 p   6.000
  | Found free-atom valence shell :  3 d   2.000
  | Found free-ion valence shell :  4 s   1.000
  | Found free-ion valence shell :  3 p   6.000
  | Found free-ion valence shell :  3 d   1.000
  | Found hydrogenic basis function :  4 f   8.000
  | Found hydrogenic basis function :  3 d   2.700
  | Found ionic basis function :  4 p , default cutoff radius.
  | Found ionic basis function :  4 s , default cutoff radius.
 | Encountered keyword species, ending the description of species Ti                  .
  Species Ti                  : Missing cutoff potential type.
  Defaulting to exp(1/x)/(1-x)^2 type cutoff potential.
  Species Ti: No 'logarithmic' tag. Using default grid for free atom:
  | Default logarithmic grid data [bohr] : 0.1000E-03 0.1000E+03 0.1012E+01
  | Will include ionic basis functions of  2.0-fold positive Ti                   ion.
  Species Ti: On-site basis accuracy parameter (for Gram-Schmidt orthonormalisation) not specified.
  Using default value basis_acc =  0.1000000E-03.
  Species Ti                  : Using default innermost maximum threshold i_radial=  2 for radial functions.
  Species Ti                  : Default cutoff onset for free atom density etc. : 0.35000000E+01 AA.
  Species Ti                  : Basic radial grid will be enhanced according to radial_multiplier =   1, to contain    48 grid points.
 
  Reading configuration options for species O                   .
  | Found nuclear charge :   8.0000
  | Found atomic mass :    15.9994000000000      amu
  | Found l_max for Hartree potential  :   4
  | Found cutoff potl. onset [A], width [A], scale factor :    3.50000    1.50000    1.00000
  | Threshold for basis-dependent cutoff potential is   0.100000E-03
  | Found data for basic radial integration grid :    36 points, outermost radius =    5.000 A
  | Found multiplier for basic radial grid :   1
  | Found angular grid specification: user-specified.
  | Specified grid contains     5 separate shells.
  | Check grid settings after all constraints further below.
  | Found free-atom valence shell :  2 s   2.000
  | Found free-atom valence shell :  2 p   4.000
  | Found free-ion valence shell :  2 s   1.000
  | Found free-ion valence shell :  2 p   3.000
  | Found hydrogenic basis function :  2 p   1.800
  | Found hydrogenic basis function :  3 d   7.600
  | Found hydrogenic basis function :  3 s   6.400
 | Encountered keyword species, ending the description of species O                   .
  Species O                   : Missing cutoff potential type.
  Defaulting to exp(1/x)/(1-x)^2 type cutoff potential.
  Species O : No 'logarithmic' tag. Using default grid for free atom:
  | Default logarithmic grid data [bohr] : 0.1000E-03 0.1000E+03 0.1012E+01
  Species O : On-site basis accuracy parameter (for Gram-Schmidt orthonormalisation) not specified.
  Using default value basis_acc =  0.1000000E-03.
  Species O                   : Using default innermost maximum threshold i_radial=  2 for radial functions.
  Species O                   : Default cutoff onset for free atom density etc. : 0.35000000E+01 AA.
  Species O                   : Basic radial grid will be enhanced according to radial_multiplier =   1, to contain    36 grid points.
 
  Reading configuration options for species F                   .
  | Found nuclear charge :   9.0000
  | Found atomic mass :    18.9984032000000      amu
  | Found l_max for Hartree potential  :   4
  | Found cutoff potl. onset [A], width [A], scale factor :    3.50000    1.50000    1.00000
  | Threshold for basis-dependent cutoff potential is   0.100000E-03
  | Found data for basic radial integration grid :    37 points, outermost radius =    5.000 A
  | Found multiplier for basic radial grid :   1
  | Found angular grid specification: user-specified.
  | Specified grid contains     4 separate shells.
  | Check grid settings after all constraints further below.
  | Found free-atom valence shell :  2 s   2.000
  | Found free-atom valence shell :  2 p   5.000
  | Found free-ion valence shell :  2 s   1.000
  | Found free-ion valence shell :  2 p   4.000
  | Found hydrogenic basis function :  2 p   1.700
  | Found hydrogenic basis function :  3 d   7.400
  | Found hydrogenic basis function :  3 s   6.800
  Species F                   : Missing cutoff potential type.
  Defaulting to exp(1/x)/(1-x)^2 type cutoff potential.
  Species F : No 'logarithmic' tag. Using default grid for free atom:
  | Default logarithmic grid data [bohr] : 0.1000E-03 0.1000E+03 0.1012E+01
  Species F : On-site basis accuracy parameter (for Gram-Schmidt orthonormalisation) not specified.
  Using default value basis_acc =  0.1000000E-03.
  Species F                   : Using default innermost maximum threshold i_radial=  2 for radial functions.
  Species F                   : Default cutoff onset for free atom density etc. : 0.35000000E+01 AA.
  Species F                   : Basic radial grid will be enhanced according to radial_multiplier =   1, to contain    37 grid points.
 
  Finished reading input file 'control.in'.
 
------------------------------------------------------------


------------------------------------------------------------
          Reading geometry description geometry.in.
------------------------------------------------------------
  | The smallest distance between any two atoms is         1.95947270 AA.
  | The first atom of this pair is atom number                      2 .
  | The second atom of this pair is atom number                     3 .
  | Wigner-Seitz cell of the first atom image           0     0     0 .
  | (The Wigner-Seitz cell of the second atom is 0 0 0  by definition.)

  Symmetry information by spglib:
  | Precision set to  0.1E-04
  | Number of Operations  : 2
  | Space group           : 6
  | International         : Pm
  | Schoenflies           : Cs^1
  Input structure read successfully.
  The structure contains       12 atoms,  and a total of        152.000 electrons.

  Input geometry:
  | Unit cell:
  |        6.56612700        0.00000000        0.00000000
  |        0.00000000        2.97288300        0.00000000
  |        0.00000000        0.00000000       22.33245700
  | Atomic structure:
  |       Atom                x [A]            y [A]            z [A]
  |    1: Species O             6.56608760        0.00000000        8.23167665
  |    2: Species O             2.00631950        1.48644150        9.50842322
  |    3: Species Ti            3.28304380        0.00000000        9.50844555
  |    4: Species Ti            6.56610730        1.48644150        9.50844555
  |    5: Species O             4.55977467        1.48644150        9.50846788
  |    6: Species O             0.00000657        0.00000000       10.78521445
  |    7: Species F             3.28300440        0.00000000       11.51490515
  |    8: Species O             5.28936330        1.48644150       12.79165172
  |    9: Species Ti            6.56609417        0.00000000       12.79167405
  |   10: Species Ti            3.28303067        1.48644150       12.79167405
  |   11: Species O             1.27669147        1.48644150       12.79171872
  |   12: Species O             3.28305037        0.00000000       14.06844295

  Lattice parameters for 3D lattice (in Angstroms) :     6.566127    2.972883   22.332457
  Angle(s) between unit vectors (in degrees)       :    90.000000   90.000000   90.000000


  Quantities derived from the lattice vectors (in Angstrom^-1):
  | Reciprocal lattice vector 1:  0.956909  0.000000  0.000000
  | Reciprocal lattice vector 2:  0.000000  2.113499  0.000000
  | Reciprocal lattice vector 3:  0.000000  0.000000  0.281348
  | Unit cell volume                               :   0.435937E+03  Angstrom^3

  Fractional coordinates:
                         L1                L2                L3
       atom_frac         0.99999400        0.00000000        0.36859700  O
       atom_frac         0.30555600        0.50000000        0.42576700  O
       atom_frac         0.49999700        0.00000000        0.42576800  Ti
       atom_frac         0.99999700        0.50000000        0.42576800  Ti
       atom_frac         0.69443900        0.50000000        0.42576900  O
       atom_frac         0.00000100        0.00000000        0.48293900  O
       atom_frac         0.49999100        0.00000000        0.51561300  F
       atom_frac         0.80555300        0.50000000        0.57278300  O
       atom_frac         0.99999500        0.00000000        0.57278400  Ti
       atom_frac         0.49999500        0.50000000        0.57278400  Ti
       atom_frac         0.19443600        0.50000000        0.57278600  O
       atom_frac         0.49999800        0.00000000        0.62995500  O

  Slab Identifier: This is Z-oriented slab and maximum thickness of the vacuum is: 16.496 Angstrom.
 
  Finished reading input file 'geometry.in'.
 

 
  Consistency checks for stacksize environment parameter are next.
 
  | Maximum stacksize for task 0: unlimited
  | Maximum stacksize for task 1: unlimited
  | Maximum stacksize for task 2: unlimited
  | Maximum stacksize for task 3: unlimited
  | Maximum stacksize for task 4: unlimited
  | Maximum stacksize for task 5: unlimited
  | Maximum stacksize for task 6: unlimited
  | Maximum stacksize for task 7: unlimited
  | Maximum stacksize for task 8: unlimited
  | Maximum stacksize for task 9: unlimited
  | Maximum stacksize for task 10: unlimited
  | Maximum stacksize for task 11: unlimited
  | Maximum stacksize for task 12: unlimited
  | Maximum stacksize for task 13: unlimited
  | Maximum stacksize for task 14: unlimited
  | Maximum stacksize for task 15: unlimited
  | Maximum stacksize for task 16: unlimited
  | Maximum stacksize for task 17: unlimited
  | Maximum stacksize for task 18: unlimited
  | Maximum stacksize for task 19: unlimited
  | Maximum stacksize for task 20: unlimited
  | Maximum stacksize for task 21: unlimited
  | Maximum stacksize for task 22: unlimited
  | Maximum stacksize for task 23: unlimited
  | Maximum stacksize for task 24: unlimited
  | Maximum stacksize for task 25: unlimited
  | Maximum stacksize for task 26: unlimited
  | Maximum stacksize for task 27: unlimited
  | Maximum stacksize for task 28: unlimited
  | Maximum stacksize for task 29: unlimited
  | Maximum stacksize for task 30: unlimited
  | Maximum stacksize for task 31: unlimited
  | Current stacksize for task 0: unlimited
  | Current stacksize for task 1: unlimited
  | Current stacksize for task 2: unlimited
  | Current stacksize for task 3: unlimited
  | Current stacksize for task 4: unlimited
  | Current stacksize for task 5: unlimited
  | Current stacksize for task 6: unlimited
  | Current stacksize for task 7: unlimited
  | Current stacksize for task 8: unlimited
  | Current stacksize for task 9: unlimited
  | Current stacksize for task 10: unlimited
  | Current stacksize for task 11: unlimited
  | Current stacksize for task 12: unlimited
  | Current stacksize for task 13: unlimited
  | Current stacksize for task 14: unlimited
  | Current stacksize for task 15: unlimited
  | Current stacksize for task 16: unlimited
  | Current stacksize for task 17: unlimited
  | Current stacksize for task 18: unlimited
  | Current stacksize for task 19: unlimited
  | Current stacksize for task 20: unlimited
  | Current stacksize for task 21: unlimited
  | Current stacksize for task 22: unlimited
  | Current stacksize for task 23: unlimited
  | Current stacksize for task 24: unlimited
  | Current stacksize for task 25: unlimited
  | Current stacksize for task 26: unlimited
  | Current stacksize for task 27: unlimited
  | Current stacksize for task 28: unlimited
  | Current stacksize for task 29: unlimited
  | Current stacksize for task 30: unlimited
  | Current stacksize for task 31: unlimited
 
  Consistency checks for the contents of control.in are next.
 
  MPI_IN_PLACE appears to work with this MPI implementation.
  | Keeping use_mpi_in_place .true. (see manual).
  Target number of points in a grid batch is not set. Defaulting to  100
  Method for grid partitioning is not set. Defaulting to parallel hash+maxmin partitioning.
  Batch size limit is not set. Defaulting to    200
  By default, will store active basis functions for each batch.
  If in need of memory, prune_basis_once .false. can be used to disable this option.
  communication_type for Hartree potential was not specified.
  Defaulting to calc_hartree .
  Defaulting to Pulay charge density mixer.
  Pulay mixer: Number of relevant iterations not set.
  Defaulting to    8 iterations.
  Pulay mixer: Number of initial linear mixing iterations not set.
  Defaulting to    0 iterations.
  Work space size for distributed Hartree potential not set.
  Defaulting to   0.200000E+03 MB.
  Mixing parameter for charge density mixing has not been set.
  Using default: charge_mix_param =     0.0500.
  The mixing parameter will be adjusted in iteration number     2 of each s.c.f. cycle (i.e., each geometry step).
  Algorithm-dependent basis array size parameters:
  | n_max_pulay                         :        8
  Maximum number of self-consistency iterations not provided.
  Presetting  1000 iterations.
  Presetting      1001 iterations before the initial mixing cycle
  is restarted anyway using the sc_init_iter criterion / keyword.
  Presetting a factor      1.000 between actual scf density residual
  and density convergence criterion sc_accuracy_rho below which sc_init_iter
  takes no effect.
 * No s.c.f. convergence criteria (sc_accuracy_*) were provided in control.in.
 * The run will proceed with a reasonable default guess, but please check whether.
 * the s.c.f. cycles seem to take too much or too little time.
  Calculation of forces was not defined in control.in. No forces will be calculated.
  Geometry relaxation not requested: no relaxation will be performed.
 * Notice: The s.c.f. convergence criterion sc_accuracy_rho was not provided.
 * We used to stop in this case, and ask the user to provide reasonable
 * scf convergence criteria. However, this led some users to employ criteria
 * that led to extremely long run times, e.g., for simple relaxation.
 * We now preset a default value for sc_accuracy_rho if it is not set.
 * You may still wish to check if this setting is too tight or too loose for your needs.
 * Based on n_atoms and forces and force-correction status, FHI-aims chose sc_accuracy_rho =  0.141421E-05 .
  No accuracy limit for integral partition fn. given. Defaulting to  0.1000E-14.
  No threshold value for u(r) in integrations given. Defaulting to  0.1000E-05.
  No occupation type (smearing scheme) given. Defaulting to Gaussian broadening, width =  0.1000E-01 eV.
  The width will be adjusted in iteration number     2 of each s.c.f. cycle (i.e., each geometry step).
  No accuracy for occupation numbers given. Defaulting to  0.1000E-12.
  No threshold value for occupation numbers given. Defaulting to  0.0000E+00.
  No accuracy for fermi level given. Defaulting to  0.1000E-19.
  Maximum # of iterations to find E_F not set. Defaulting to  200.
  Preferred method for the eigenvalue solver ('KS_method') not specified in 'control.in'.
  Defaulting to serial version, LAPACK (via ELSI), since more k-points than CPUs available.
  Will not use alltoall communication since running on < 1024 CPUs.
  Threshold for basis singularities not set.
  Default threshold for basis singularities:  0.1000E-04
  partition_type (choice of integration weights) for integrals was not specified.
  | Using a version of the partition function of Stratmann and coworkers ('stratmann_sparse').
  | At each grid point, the set of atoms used to build the partition table is smoothly restricted to
  | only those atoms whose free-atom density would be non-zero at that grid point.
  Partitioning for Hartree potential was not defined. Using partition_type for integrals.
  | Adjusted default value of keyword multip_moments_threshold to:       0.10000000E-11
  | This value may affect high angular momentum components of the Hartree potential in periodic systems.
  Angular momentum expansion for Kerker preconditioner not set explicitly.
  | Using default value of   0
  No explicit requirement for turning off preconditioner.
  | By default, it will be turned off when the charge convergence reaches
  | sc_accuracy_rho  =   0.141421E-05
  No special mixing parameter while Kerker preconditioner is on.
  Using default: charge_mix_param =     0.0500.
  No q(lm)/r^(l+1) cutoff set for long-range Hartree potential.
  | Using default value of  0.100000E-09 .
  | Verify using the multipole_threshold keyword.
  Defaulting to new monopole extrapolation.
  Density update method: automatic selection selected.
  Using density matrix based charge density update.
  Using density matrix based charge density update.
  Using packed matrix style: index .
  Defaulting to use time-reversal symmetry for k-point grid.
  Charge integration errors on the 3D integration grid will be compensated
  by explicit normalization and distribution of residual charges.
  Use the "compensate_multipole_errors" flag to change this behaviour.
  Set 'collect_eigenvectors' to be '.true.' for all serial calculations. This is mandatory.
  Set 'collect_eigenvectors' to be '.true.' for KS_method lapack_fast and serial.
  Found potential conflicts with setting 'use_local_index' for this calculation. Will not set it.
 
  Consistency checks for the contents of geometry.in are next.
 

  Range separation radius for Ewald summation (hartree_convergence_parameter):      4.81466675 bohr.
 * Warning: Initial charge and total charge of the system are inconsistent.
 * Selected charge in control.in:     1.0000* Sum of initial charges in geometry.in:     0.0000
  Number of empty states per atom not set in control.in - providing a guess from actual geometry.
  | Total number of empty states used during s.c.f. cycle:       46
  If you use a very high smearing, use empty_states (per atom!) in control.in to increase this value.

  Structure-dependent array size parameters: 
  | Maximum number of distinct radial functions  :       23
  | Maximum number of basis functions            :      236
  | Number of Kohn-Sham states (occupied + empty):      122
------------------------------------------------------------
  After read_input_data [GB]:    997.21

  Performing system and environment tests:
  *** Environment variable OMP_NUM_THREADS is not set
  *** For performance reasons you might want to set it to 1
  | Checking for ScaLAPACK...
  | Testing pdtran()...
  | All pdtran() tests passed.
  After prepare_system [GB]:    997.06

------------------------------------------------------------
          Preparing all fixed parts of the calculation.
------------------------------------------------------------
  Determining machine precision:
    2.225073858507201E-308
  Setting up grids for atomic and cluster calculations.

  Creating wave function, potential, and density for free atoms.
  Runtime choices for atomic solver:
  | atomic solver xc        : PBE
  | compute density gradient: 1
  | compute kinetic density : F

  Species: Ti

  List of occupied orbitals and eigenvalues:
    n    l              occ      energy [Ha]    energy [eV]
    1    0           2.0000      -179.959082     -4896.9358
    2    0           2.0000       -19.727662      -536.8170
    3    0           2.0000        -2.283029       -62.1244
    4    0           2.0000        -0.148384        -4.0377
    2    1           6.0000       -16.317278      -444.0157
    3    1           6.0000        -1.409348       -38.3503
    3    2           2.0000        -0.139340        -3.7916


  Species: O

  List of occupied orbitals and eigenvalues:
    n    l              occ      energy [Ha]    energy [eV]
    1    0           2.0000       -18.926989      -515.0296
    2    0           2.0000        -0.880247       -23.9527
    2    1           4.0000        -0.331514        -9.0210


  Species: F

  List of occupied orbitals and eigenvalues:
    n    l              occ      energy [Ha]    energy [eV]
    1    0           2.0000       -24.399611      -663.9472
    2    0           2.0000        -1.098702       -29.8972
    2    1           5.0000        -0.408210       -11.1080


  Adding cutoff potential to free-atom effective potential.
  Creating fixed part of basis set: Ionic, confined, hydrogenic.
 
  Ti                   ion:

  List of free ionic orbitals and eigenvalues:
    n    l      energy [Ha]    energy [eV]
    1    0      -180.819616     -4920.3521
    2    0       -20.608761      -560.7929
    3    0        -3.115729       -84.7833
    4    0        -0.697188       -18.9715
    2    1       -17.196209      -467.9327
    3    1        -2.231296       -60.7167
    3    2        -0.911363       -24.7995


  List of ionic basis orbitals and eigenvalues:
    n    l      energy [Ha]    energy [eV]    outer radius [A]
    4    1        -0.517739       -14.0884       4.592117
    4    0        -0.696824       -18.9615       4.536321

 
  Ti                   hydrogenic:
 
  List of hydrogenic basis orbitals: 
    n    l      effective z      eigenvalue [eV]  inner max. [A]     outer max. [A]     outer radius [A]   
    4    3         8.000000       -54.4222           1.059019           1.059019           4.267343
    3    2         2.700000       -10.7798           1.726925           1.726925           4.592117
 
 
  O                    hydrogenic:
 
  List of hydrogenic basis orbitals: 
    n    l      effective z      eigenvalue [eV]  inner max. [A]     outer max. [A]     outer radius [A]   
    2    1         1.800000       -10.9749           1.164242           1.164242           4.578029
    3    2         7.600000       -87.3180           0.624125           0.624125           3.251020
    3    0         6.400000       -61.9207           0.061167           1.081902           4.001998
 
 
  F                    hydrogenic:
 
  List of hydrogenic basis orbitals: 
    n    l      effective z      eigenvalue [eV]  inner max. [A]     outer max. [A]     outer radius [A]   
    2    1         1.700000        -9.7616           1.243167           1.243167           4.598524
    3    2         7.400000       -82.7828           0.642437           0.642437           3.305741
    3    0         6.800000       -69.9026           0.057798           1.022307           3.781556
 
  Creating atomic-like basis functions for current effective potential.

  Species Ti                  :

  List of atomic basis orbitals and eigenvalues:
    n    l      energy [Ha]    energy [eV]    outer radius [A]
    1    0      -179.959082     -4896.9358       0.490254
    2    0       -19.727662      -536.8170       1.491292
    3    0        -2.283029       -62.1244       4.014314
    4    0        -0.148384        -4.0377       4.592117
    2    1       -16.317278      -444.0157       1.585290
    3    1        -1.409348       -38.3503       4.267343
    3    2        -0.139340        -3.7916       4.536321


  Species O                   :

  List of atomic basis orbitals and eigenvalues:
    n    l      energy [Ha]    energy [eV]    outer radius [A]
    1    0       -18.926989      -515.0296       1.415765
    2    0        -0.880247       -23.9527       4.413171
    2    1        -0.331514        -9.0210       4.522403


  Species F                   :

  List of atomic basis orbitals and eigenvalues:
    n    l      energy [Ha]    energy [eV]    outer radius [A]
    1    0       -24.399611      -663.9472       1.258458
    2    0        -1.098702       -29.8972       4.325857
    2    1        -0.408210       -11.1080       4.487453

  Assembling full basis from fixed parts.
  | Species Ti :   atomic orbital   1 s accepted.
  | Species Ti :   atomic orbital   2 s accepted.
  | Species Ti :   atomic orbital   3 s accepted.
  | Species Ti :    ionic orbital   4 s accepted.
  | Species Ti :   atomic orbital   4 s accepted.
  | Species Ti :   atomic orbital   2 p accepted.
  | Species Ti :   atomic orbital   3 p accepted.
  | Species Ti :    ionic orbital   4 p accepted.
  | Species Ti :   atomic orbital   3 d accepted.
  | Species Ti :    hydro orbital   3 d accepted.
  | Species Ti :    hydro orbital   4 f accepted.
  | Species O :   atomic orbital   1 s accepted.
  | Species O :    hydro orbital   3 s accepted.
  | Species O :   atomic orbital   2 s accepted.
  | Species O :   atomic orbital   2 p accepted.
  | Species O :    hydro orbital   2 p accepted.
  | Species O :    hydro orbital   3 d accepted.
  | Species F :   atomic orbital   1 s accepted.
  | Species F :    hydro orbital   3 s accepted.
  | Species F :   atomic orbital   2 s accepted.
  | Species F :   atomic orbital   2 p accepted.
  | Species F :    hydro orbital   2 p accepted.
  | Species F :    hydro orbital   3 d accepted.
 
  Basis size parameters after reduction:
  | Total number of radial functions:       23
  | Total number of basis functions :      236
 
  Per-task memory consumption for arrays in subroutine allocate_ext:
  |           8.150568MB.
  Testing on-site integration grid accuracy.
  |  Species  Function  <phi|h_atom|phi> (log., in eV)  <phi|h_atom|phi> (rad., in eV)
           1        1              -4896.9357674450              -4896.9322830202
           1        2               -536.8170048508               -536.8169722333
           1        3                -62.1243896260                -62.1243889283
           1        4                 -3.2653235630                 -3.2692838808
           1        5                  6.7987747276                  6.5460721883 ***
           1        6               -444.0157161949               -444.0157165810
           1        7                -38.3503235548                -38.3503234963
           1        8                  0.2923930877                  0.2745948116
           1        9                 -3.7933400649                 -3.7959244177
           1       10                  6.3288803616                  6.2510614929 ***
           1       11                 27.8451455747                 27.8452636416
           2       12               -515.0295626295               -515.0294562738
           2       13                 15.1698434419                 15.1699322204
           2       14                -21.6038822678                -21.6039118105
           2       15                 -9.0211123393                 -9.0212703513
           2       16                  8.3047696391                  8.2854840999
           2       17                 45.8428042125                 45.8427461222
           3       18               -663.9471986398               -663.9470363334
           3       19                 16.8514011578                 16.8512525338
           3       20                -28.4490593856                -28.4490661472
           3       21                -11.1080115307                -11.1080620173
           3       22                  7.1940182175                  7.1685154137
           3       23                 44.8544281765                 44.8543763625
 * Note: Onsite integrals marked "***" above are less accurate than
 * onsite_accuracy_threshold =    0.03000 eV. Usually, this is harmless.
 * When in doubt, tighten the "radial" and/or "radial_multiplier" flags to check.

  Preparing densities etc. for the partition functions (integrals / Hartree potential).

  Preparations completed.
  max(cpu_time)          :      0.296 s.
  Wall clock time (cpu1) :      0.294 s.
------------------------------------------------------------
  After prepare_scf [GB]:    995.35

  Initializing index lists of integration centers etc. from given atomic structure:
  Mapping all atomic coordinates to central unit cell.

  Initializing the k-points
  Using symmetry for reducing the k-points
  | k-points reduced from:       64 to       36
  | Number of k-points                             :        36
  The eigenvectors in the calculations are COMPLEX.
  | K-points in task   0:         1
  | K-points in task   1:         2
  | K-points in task   2:         2
  | K-points in task   3:         2
  | K-points in task   4:         2
  | K-points in task   5:         1
  | K-points in task   6:         1
  | K-points in task   7:         1
  | K-points in task   8:         1
  | K-points in task   9:         1
  | K-points in task  10:         1
  | K-points in task  11:         1
  | K-points in task  12:         1
  | K-points in task  13:         1
  | K-points in task  14:         1
  | K-points in task  15:         1
  | K-points in task  16:         1
  | K-points in task  17:         1
  | K-points in task  18:         1
  | K-points in task  19:         1
  | K-points in task  20:         1
  | K-points in task  21:         1
  | K-points in task  22:         1
  | K-points in task  23:         1
  | K-points in task  24:         1
  | K-points in task  25:         1
  | K-points in task  26:         1
  | K-points in task  27:         1
  | K-points in task  28:         1
  | K-points in task  29:         1
  | K-points in task  30:         1
  | K-points in task  31:         1
  | Number of basis functions in the Hamiltonian integrals :      3790
  | Number of basis functions in a single unit cell        :       236
  | Number of centers in hartree potential         :      1291
  | Number of centers in hartree multipole         :       593
  | Number of centers in electron density summation:       468
  | Number of centers in basis integrals           :       491
  | Number of centers in integrals                 :       232
  | Number of centers in hamiltonian               :       473
  | Consuming         47 KiB for k_phase.
  | Number of super-cells (origin) [n_cells]                     :         675
  | Number of super-cells (after PM_index) [n_cells]             :          84
  | Number of super-cells in hamiltonian [n_cells_in_hamiltonian]:          84
  | Size of matrix packed + index [n_hamiltonian_matrix_size] :      279831
  After initialize_bc_dependent_lists [GB]:    995.35

------------------------------------------------------------
          Begin self-consistency loop: Initialization.

          Date     :  20241014, Time     :  145618.818
------------------------------------------------------------
  Available memory per node after initialize_hartree_non_periodic_ewald [GB]:    995.35
  | Estimated reciprocal-space cutoff momentum G_max:         1.91888898 bohr^-1 .
  | Reciprocal lattice points for long-range Hartree potential:     344
  Available memory per node after initialize_recip_hartree_potential [GB]:    995.35
  Available memory per node after initialize_scalapack [GB]:    995.35
  Available memory per node after aims_elsi_init_scf [GB]:    995.35
  Available memory per node after initialize_fixed_grids [GB]:    995.35
  Partitioning the integration grid into batches with parallel hashing+maxmin method.
  | Number of batches:      897
  | Maximal batch size:     170
  | Minimal batch size:      53
  | Average batch size:      86.852
  | Standard deviation of batch sizes:      32.821

  Integration load balanced across    32 MPI tasks.
  Work distribution over tasks is as follows:
  Task     0 has       2434 integration points.
  Task     1 has       2463 integration points.
  Task     2 has       2458 integration points.
  Task     3 has       2409 integration points.
  Task     4 has       2417 integration points.
  Task     5 has       2450 integration points.
  Task     6 has       2447 integration points.
  Task     7 has       2460 integration points.
  Task     8 has       2453 integration points.
  Task     9 has       2407 integration points.
  Task    10 has       2442 integration points.
  Task    11 has       2459 integration points.
  Task    12 has       2407 integration points.
  Task    13 has       2405 integration points.
  Task    14 has       2414 integration points.
  Task    15 has       2456 integration points.
  Task    16 has       2468 integration points.
  Task    17 has       2452 integration points.
  Task    18 has       2413 integration points.
  Task    19 has       2417 integration points.
  Task    20 has       2447 integration points.
  Task    21 has       2433 integration points.
  Task    22 has       2451 integration points.
  Task    23 has       2415 integration points.
  Task    24 has       2433 integration points.
  Task    25 has       2435 integration points.
  Task    26 has       2422 integration points.
  Task    27 has       2421 integration points.
  Task    28 has       2439 integration points.
  Task    29 has       2426 integration points.
  Task    30 has       2429 integration points.
  Task    31 has       2424 integration points.
  Available memory per node after partition_grid [GB]:    995.35
  Initializing partition tables, free-atom densities, potentials, etc. across the integration grid (initialize_grid_storage).
  | initialize_grid_storage: Actual outermost partition radius vs. multipole_radius_free
  | (-- VB: in principle, multipole_radius_free should be larger, hence this output)
  | Species        1: Confinement radius =              4.999999999999999 AA, multipole_radius_free =              5.002391649902235 AA.
  | Species        1: outer_partition_radius set to              5.002391649902235 AA .
  | Species        2: Confinement radius =              4.999999999999999 AA, multipole_radius_free =              5.048384829883283 AA.
  | Species        2: outer_partition_radius set to              5.048384829883283 AA .
  | Species        3: Confinement radius =              4.999999999999999 AA, multipole_radius_free =              5.009370088163274 AA.
  | Species        3: outer_partition_radius set to              5.009370088163274 AA .
  | The sparse table of interatomic distances needs        690.50 kbyte instead of      1928.65 kbyte of memory.
  | Net number of integration points:    77906
  | of which are non-zero points    :    65625
  | Numerical average free-atom electrostatic potential    :     -5.18510460 eV
  Available memory per node after initialize_grid_storage_p1 [GB]:    995.35
  Renormalizing the initial density to the exact electron count on the 3D integration grid.
  | Initial density: Formal number of electrons (from input files) :     153.0000000000
  | Integrated number of electrons on 3D grid     :     152.9995994873
  | Charge integration error                      :      -0.0004005127
  | Normalization factor for density and gradient :       1.0000026177
  Renormalizing the free-atom superposition density to the exact electron count on the 3D integration grid.
  | Formal number of electrons (from input files) :     152.0000000000
  | Integrated number of electrons on 3D grid     :     152.9995994873
  | Charge integration error                      :      -0.0004005127
  | Normalization factor for density and gradient :       1.0000026177
  Obtaining max. number of non-zero basis functions in each batch (get_n_compute_maxes).
  | Maximal number of non-zero basis functions:      687 in task     0
  | Maximal number of non-zero basis functions:      683 in task     1
  | Maximal number of non-zero basis functions:      662 in task     2
  | Maximal number of non-zero basis functions:      696 in task     3
  | Maximal number of non-zero basis functions:      638 in task     4
  | Maximal number of non-zero basis functions:      686 in task     5
  | Maximal number of non-zero basis functions:      715 in task     6
  | Maximal number of non-zero basis functions:      682 in task     7
  | Maximal number of non-zero basis functions:      678 in task     8
  | Maximal number of non-zero basis functions:      667 in task     9
  | Maximal number of non-zero basis functions:      691 in task    10
  | Maximal number of non-zero basis functions:      696 in task    11
  | Maximal number of non-zero basis functions:      707 in task    12
  | Maximal number of non-zero basis functions:      701 in task    13
  | Maximal number of non-zero basis functions:      687 in task    14
  | Maximal number of non-zero basis functions:      711 in task    15
  | Maximal number of non-zero basis functions:      680 in task    16
  | Maximal number of non-zero basis functions:      705 in task    17
  | Maximal number of non-zero basis functions:      708 in task    18
  | Maximal number of non-zero basis functions:      685 in task    19
  | Maximal number of non-zero basis functions:      672 in task    20
  | Maximal number of non-zero basis functions:      720 in task    21
  | Maximal number of non-zero basis functions:      714 in task    22
  | Maximal number of non-zero basis functions:      670 in task    23
  | Maximal number of non-zero basis functions:      722 in task    24
  | Maximal number of non-zero basis functions:      667 in task    25
  | Maximal number of non-zero basis functions:      687 in task    26
  | Maximal number of non-zero basis functions:      696 in task    27
  | Maximal number of non-zero basis functions:      688 in task    28
  | Maximal number of non-zero basis functions:      697 in task    29
  | Maximal number of non-zero basis functions:      689 in task    30
  | Maximal number of non-zero basis functions:      687 in task    31
  Available memory per node after get_n_compute_maxes_p1 [GB]:    995.34
  Allocating        0.439 MB for KS_eigenvector_complex
  Available memory per node after allocate_matrices [GB]:    995.34
  Available memory per node after init_comm_sparse_local_matrix_scalapack [GB]:    995.34
  Integrating Hamiltonian matrix: batch-based integration.
  Time summed over all CPUs for integration: real work        5.466 s, elapsed        7.187 s => Consider using load balancing!
  Available memory per node after integrate hamiltonian matrix [GB]:    995.33
  Integrating overlap matrix.
  Time summed over all CPUs for integration: real work        2.971 s, elapsed        4.215 s
  Available memory per node after integrate ovlp matrix [GB]:    995.32
  Available memory per node after ASI_callbacks invoke [GB]:    995.32
  Available memory per node after save_overlap_scalapack [GB]:    995.32

  Updating Kohn-Sham eigenvalues and eigenvectors using ELSI and the (modified) LAPACK eigensolver.
  Singularity check in k-point 32, task 0 (analysis for other k-points/tasks may follow below):
  Overlap matrix is not singular
  | Lowest and highest eigenvalues :  0.2817E-02,  0.7737E+01
  Finished singularity check of overlap matrix
  | Time :     0.009 s
  Starting LAPACK eigensolver
  Finished Cholesky decomposition
  | Time :     0.002 s
  Finished transformation to standard eigenproblem
  | Time :     0.004 s
  Finished solving standard eigenproblem
  | Time :     0.011 s
  Finished back-transformation of eigenvectors
  | Time :     0.001 s

  Obtaining occupation numbers and electronic chemical potential using ELSI.
  | Note that, for insulating systems, the printed 'chemical potential' value is not uniquely defined.
  | It can be anywhere in the energy gap, as long as it correctly separates occupied and unoccupied states.
  | In systems with a gap, the physically relevant chemical potential is the VBM or HOMO.

  | Chemical potential (Fermi level):    -9.25191722 eV
  Available memory per node after advance_KS_solution [GB]:    995.32
  Writing Kohn-Sham eigenvalues.
  K-point:       1 at    0.000000    0.000000    0.000000 (in units of recip. lattice)

  State    Occupation    Eigenvalue [Ha]    Eigenvalue [eV]
      1       2.00000        -179.969190        -4897.21083
      2       2.00000        -179.968060        -4897.18009
      3       2.00000        -179.967896        -4897.17562
      4       2.00000        -179.967520        -4897.16538
      5       2.00000         -24.506996         -666.86929
      6       2.00000         -19.738762         -537.11905
      7       2.00000         -19.737527         -537.08544
      8       2.00000         -19.737374         -537.08127
      9       2.00000         -19.736947         -537.06964
     10       2.00000         -19.034876         -517.96534
     11       2.00000         -19.034712         -517.96086
     12       2.00000         -19.034712         -517.96086
     13       2.00000         -19.034712         -517.96085
     14       2.00000         -19.034712         -517.96085
     15       2.00000         -19.002093         -517.07326
     16       2.00000         -19.002027         -517.07147
     17       2.00000         -16.328416         -444.31881
     18       2.00000         -16.328096         -444.31009
     19       2.00000         -16.328089         -444.30992
     20       2.00000         -16.327245         -444.28695
     21       2.00000         -16.327014         -444.28065
     22       2.00000         -16.326936         -444.27854
     23       2.00000         -16.326771         -444.27406
     24       2.00000         -16.326767         -444.27394
     25       2.00000         -16.326706         -444.27228
     26       2.00000         -16.326690         -444.27183
     27       2.00000         -16.326381         -444.26342
     28       2.00000         -16.326162         -444.25748
     29       2.00000          -2.309127          -62.83454
     30       2.00000          -2.306699          -62.76847
     31       2.00000          -2.306213          -62.75524
     32       2.00000          -2.305221          -62.72826
     33       2.00000          -1.448367          -39.41206
     34       2.00000          -1.447966          -39.40116
     35       2.00000          -1.447741          -39.39505
     36       2.00000          -1.446258          -39.35467
     37       2.00000          -1.441116          -39.21476
     38       2.00000          -1.439230          -39.16345
     39       2.00000          -1.438464          -39.14259
     40       2.00000          -1.438349          -39.13946
     41       2.00000          -1.437572          -39.11833
     42       2.00000          -1.437323          -39.11155
     43       2.00000          -1.433049          -38.99525
     44       2.00000          -1.431385          -38.94998
     45       2.00000          -1.232502          -33.53808
     46       2.00000          -1.054214          -28.68663
     47       2.00000          -1.048824          -28.53995
     48       2.00000          -1.030450          -28.03996
     49       2.00000          -1.006504          -27.38837
     50       2.00000          -1.005024          -27.34810
     51       2.00000          -0.987362          -26.86748
     52       2.00000          -0.981828          -26.71690
     53       2.00000          -0.595223          -16.19684
     54       2.00000          -0.572530          -15.57934
     55       2.00000          -0.572219          -15.57087
     56       2.00000          -0.562898          -15.31724
     57       2.00000          -0.557554          -15.17180
     58       2.00000          -0.542517          -14.76265
     59       2.00000          -0.514697          -14.00563
     60       2.00000          -0.513747          -13.97976
     61       2.00000          -0.503917          -13.71229
     62       2.00000          -0.503246          -13.69402
     63       2.00000          -0.484134          -13.17396
     64       2.00000          -0.478778          -13.02821
     65       2.00000          -0.477038          -12.98087
     66       2.00000          -0.464819          -12.64838
     67       2.00000          -0.460673          -12.53555
     68       2.00000          -0.460077          -12.51932
     69       2.00000          -0.457349          -12.44511
     70       2.00000          -0.447580          -12.17926
     71       2.00000          -0.441830          -12.02281
     72       2.00000          -0.438400          -11.92948
     73       2.00000          -0.434177          -11.81457
     74       2.00000          -0.430324          -11.70971
     75       2.00000          -0.414736          -11.28554
     76       2.00000          -0.412134          -11.21475
     77       0.00000          -0.188202           -5.12124
     78       0.00000          -0.187176           -5.09331
     79       0.00000          -0.176602           -4.80559
     80       0.00000          -0.172813           -4.70249
     81       0.00000          -0.155594           -4.23392
     82       0.00000          -0.152369           -4.14616
     83       0.00000          -0.150791           -4.10322
     84       0.00000          -0.145412           -3.95686
     85       0.00000          -0.145399           -3.95651
     86       0.00000          -0.143567           -3.90667
     87       0.00000          -0.139543           -3.79717
     88       0.00000          -0.128615           -3.49980
     89       0.00000          -0.121821           -3.31491
     90       0.00000          -0.111318           -3.02912
     91       0.00000          -0.079531           -2.16414
     92       0.00000          -0.068307           -1.85873
     93       0.00000          -0.051575           -1.40344
     94       0.00000          -0.042748           -1.16323
     95       0.00000          -0.040457           -1.10089
     96       0.00000          -0.039514           -1.07522
     97       0.00000          -0.039133           -1.06485
     98       0.00000          -0.029268           -0.79642
     99       0.00000           0.021480            0.58450
    100       0.00000           0.056239            1.53033
    101       0.00000           0.086319            2.34886
    102       0.00000           0.096813            2.63443
    103       0.00000           0.100947            2.74690
    104       0.00000           0.106547            2.89930
    105       0.00000           0.165807            4.51184
    106       0.00000           0.182589            4.96849
    107       0.00000           0.237946            6.47484
    108       0.00000           0.250119            6.80608
    109       0.00000           0.307441            8.36589
    110       0.00000           0.328876            8.94917
    111       0.00000           0.333153            9.06557
    112       0.00000           0.362391            9.86117
    113       0.00000           0.371339           10.10464
    114       0.00000           0.375265           10.21148
    115       0.00000           0.409980           11.15612
    116       0.00000           0.422557           11.49835
    117       0.00000           0.470582           12.80520
    118       0.00000           0.488054           13.28062
    119       0.00000           0.503815           13.70949
    120       0.00000           0.503964           13.71357
    121       0.00000           0.520523           14.16415
    122       0.00000           0.525495           14.29944

  What follows are estimated values for band gap, HOMO, LUMO, etc.
  | They are estimated on a discrete k-point grid and not necessarily exact.
  | For converged numbers, create a DOS and/or band structure plot on a denser k-grid.

  Highest occupied state (VBM) at    -11.21474654 eV (relative to internal zero)
  | Occupation number:      2.00000000
  | K-point:       1 at    0.000000    0.000000    0.000000 (in units of recip. lattice)

  Lowest unoccupied state (CBM) at    -5.12124355 eV (relative to internal zero)
  | Occupation number:      0.00000000
  | K-point:       1 at    0.000000    0.000000    0.000000 (in units of recip. lattice)

  ESTIMATED overall HOMO-LUMO gap:      6.09350299 eV between HOMO at k-point 1 and LUMO at k-point 1
  | This appears to be a direct band gap.
  The gap value is above 0.2 eV. Unless you are using a very sparse k-point grid,
  this system is most likely an insulator or a semiconductor.
  Calculating total energy contributions from superposition of free atom densities.

  Total energy components:
  | Sum of eigenvalues            :       -2398.15565965 Ha      -65257.13574571 eV
  | XC energy correction          :        -238.32610949 Ha       -6485.18340175 eV
  | XC potential correction       :         308.13606565 Ha        8384.80896076 eV
  | Free-atom electrostatic energy:       -1724.45905595 Ha      -46924.91842597 eV
  | Hartree energy correction     :           0.00000000 Ha           0.00000000 eV
  | Entropy correction            :           0.00000000 Ha           0.00000000 eV
  | ---------------------------
  | Total energy                  :       -4052.80475944 Ha     -110282.42861268 eV
  | Total energy, T -> 0          :       -4052.80475944 Ha     -110282.42861268 eV  <-- do not rely on this value for anything but (periodic) metals
  | Electronic free energy        :       -4052.80475944 Ha     -110282.42861268 eV

  Derived energy quantities:
  | Kinetic energy                :        4078.26751936 Ha      110975.30556303 eV
  | Electrostatic energy          :       -7892.74616931 Ha     -214772.55077396 eV
  | Energy correction for multipole
  | error in Hartree potential    :           0.00000000 Ha           0.00000000 eV
  | Sum of eigenvalues per atom                           :       -5438.09464548 eV
  | Total energy (T->0) per atom                          :       -9190.20238439 eV  <-- do not rely on this value for anything but (periodic) metals
  | Electronic free energy per atom                       :       -9190.20238439 eV
  Initialize hartree_potential_storage
  Max. number of atoms included in rho_multipole:           12

  End scf initialization - timings             :  max(cpu_time)    wall_clock(cpu1)
  | Time for scf. initialization                :        0.666 s           0.666 s
  | Boundary condition initialization           :        0.045 s           0.045 s
  | Integration                                 :        0.377 s           0.376 s
  | Solution of K.-S. eqns.                     :        0.080 s           0.079 s
  | Grid partitioning                           :        0.070 s           0.070 s
  | Preloading free-atom quantities on grid     :        0.123 s           0.123 s
  | Free-atom superposition energy              :        0.015 s           0.015 s
  | Total energy evaluation                     :        0.000 s           0.001 s

  Partial memory accounting:
  | Current value for overall tracked memory usage:
  |   Minimum:        5.839 MB (on task  0)
  |   Maximum:        6.279 MB (on task  1)
  |   Average:        5.894 MB
  | Peak value for overall tracked memory usage:
  |   Minimum:       11.844 MB (on task  9 after allocating wave)
  |   Maximum:       12.699 MB (on task  3 after allocating wave)
  |   Average:       12.227 MB
  | Largest tracked array allocation so far:
  |   Minimum:        3.105 MB (hamiltonian_shell on task  4)
  |   Maximum:        3.977 MB (hamiltonian_shell on task 24)
  |   Average:        3.633 MB
  Note:  These values currently only include a subset of arrays which are explicitly tracked.
  The "true" memory usage will be greater.
------------------------------------------------------------
  Available memory after initialize_scf [GB]:    995.32
  Available memory after allocating mixing [GB]:    995.32
  Evaluating new KS density using the density matrix
  Evaluating density matrix
  Time summed over all CPUs for getting density from density matrix: real work        9.029 s, elapsed       11.631 s
  Integration grid: deviation in total charge (<rho> - N_e) =   5.684342E-14

  Time for density update prior                :  max(cpu_time)    wall_clock(cpu1)
  | self-consistency iterative process          :        0.370 s           0.369 s
  Available memory before start of SCF loop [GB]:    995.32

------------------------------------------------------------
          Begin self-consistency iteration #    1

  Date     :  20241014, Time     :  145619.853
------------------------------------------------------------
  Pulay mixing of updated and previous charge densities.
  Available memory per node after mixing [GB]:    995.33
  Renormalizing the density to the exact electron count on the 3D integration grid.
  | Formal number of electrons (from input files) :     152.0000000000
  | Integrated number of electrons on 3D grid     :     152.9735461109
  | Charge integration error                      :       0.9735461109
  | Normalization factor for density and gradient :       0.9936358532
  * The proposed renormalization factor deviates too far from 1.
  * Since the initial charge in geometry.in was not equal to the formal charge,
  * it is not yet safe to renormalize the charge. If this message persists
  * even in the final s.c.f. cycle, your integration accuracy may not be good enough.

  Evaluating partitioned Hartree potential by multipole expansion.
  | Original multipole sum: apparent total charge =   0.264539E-01
  | Sum of charges compensated after spline to logarithmic grids =   0.120756E-04
  | Analytical far-field extrapolation by fixed multipoles:
  | Hartree multipole sum: apparent total charge =   0.264539E-01
  Summing up the Hartree potential.
  Time summed over all CPUs for potential: real work        0.062 s, elapsed        0.078 s
  | RMS charge density error from multipole expansion :   0.107903E-02
  | Average real-space part of the electrostatic potential :     -0.00015361 eV

  Integrating Hamiltonian matrix: batch-based integration.
  Time summed over all CPUs for integration: real work        5.437 s, elapsed        7.206 s => Consider using load balancing!

  Updating Kohn-Sham eigenvalues and eigenvectors using ELSI and the (modified) LAPACK eigensolver.
  Starting LAPACK eigensolver
  Finished Cholesky decomposition
  | Time :     0.002 s
  Finished transformation to standard eigenproblem
  | Time :     0.003 s
  Finished solving standard eigenproblem
  | Time :     0.013 s
  Finished back-transformation of eigenvectors
  | Time :     0.001 s

  Obtaining occupation numbers and electronic chemical potential using ELSI.
  | Note that, for insulating systems, the printed 'chemical potential' value is not uniquely defined.
  | It can be anywhere in the energy gap, as long as it correctly separates occupied and unoccupied states.
  | In systems with a gap, the physically relevant chemical potential is the VBM or HOMO.

  | Chemical potential (Fermi level):    -9.55909207 eV
  Writing Kohn-Sham eigenvalues.
  K-point:       1 at    0.000000    0.000000    0.000000 (in units of recip. lattice)

  State    Occupation    Eigenvalue [Ha]    Eigenvalue [eV]
      1       2.00000        -180.003102        -4898.13363
      2       2.00000        -180.001786        -4898.09780
      3       2.00000        -179.999710        -4898.04132
      4       2.00000        -179.993260        -4897.86582
      5       2.00000         -24.508053         -666.89805
      6       2.00000         -19.772017         -538.02396
      7       2.00000         -19.770806         -537.99099
      8       2.00000         -19.768873         -537.93840
      9       2.00000         -19.762677         -537.76981
     10       2.00000         -19.014877         -517.42112
     11       2.00000         -19.014877         -517.42112
     12       2.00000         -19.013629         -517.38717
     13       2.00000         -19.013629         -517.38716
     14       2.00000         -19.012951         -517.36871
     15       2.00000         -18.973250         -516.28841
     16       2.00000         -18.969249         -516.17952
     17       2.00000         -16.361820         -445.22777
     18       2.00000         -16.361548         -445.22038
     19       2.00000         -16.361495         -445.21894
     20       2.00000         -16.360586         -445.19420
     21       2.00000         -16.360329         -445.18719
     22       2.00000         -16.360266         -445.18549
     23       2.00000         -16.358602         -445.14021
     24       2.00000         -16.358388         -445.13437
     25       2.00000         -16.358337         -445.13300
     26       2.00000         -16.352373         -444.97070
     27       2.00000         -16.352151         -444.96468
     28       2.00000         -16.352100         -444.96329
     29       2.00000          -2.331565          -63.44512
     30       2.00000          -2.331108          -63.43268
     31       2.00000          -2.329924          -63.40046
     32       2.00000          -2.325426          -63.27807
     33       2.00000          -1.470326          -40.00960
     34       2.00000          -1.469717          -39.99304
     35       2.00000          -1.469471          -39.98635
     36       2.00000          -1.463152          -39.81440
     37       2.00000          -1.462540          -39.79775
     38       2.00000          -1.461773          -39.77687
     39       2.00000          -1.460204          -39.73418
     40       2.00000          -1.459693          -39.72027
     41       2.00000          -1.456932          -39.64512
     42       2.00000          -1.456480          -39.63283
     43       2.00000          -1.456261          -39.62687
     44       2.00000          -1.456059          -39.62138
     45       2.00000          -1.242060          -33.79816
     46       2.00000          -1.051176          -28.60396
     47       2.00000          -1.046111          -28.46614
     48       2.00000          -1.025386          -27.90217
     49       2.00000          -1.004381          -27.33059
     50       2.00000          -1.002385          -27.27628
     51       2.00000          -0.978201          -26.61821
     52       2.00000          -0.969477          -26.38080
     53       2.00000          -0.603906          -16.43313
     54       2.00000          -0.573854          -15.61537
     55       2.00000          -0.572657          -15.58280
     56       2.00000          -0.572011          -15.56521
     57       2.00000          -0.564559          -15.36242
     58       2.00000          -0.539805          -14.68884
     59       2.00000          -0.515021          -14.01444
     60       2.00000          -0.513625          -13.97644
     61       2.00000          -0.503324          -13.69614
     62       2.00000          -0.499080          -13.58065
     63       2.00000          -0.480438          -13.07338
     64       2.00000          -0.475134          -12.92904
     65       2.00000          -0.474693          -12.91706
     66       2.00000          -0.461563          -12.55978
     67       2.00000          -0.458887          -12.48694
     68       2.00000          -0.456215          -12.41424
     69       2.00000          -0.453541          -12.34149
     70       2.00000          -0.440963          -11.99922
     71       2.00000          -0.435163          -11.84138
     72       2.00000          -0.433414          -11.79379
     73       2.00000          -0.423250          -11.51722
     74       2.00000          -0.419607          -11.41810
     75       2.00000          -0.404650          -11.01109
     76       2.00000          -0.403071          -10.96813
     77       0.00000          -0.205995           -5.60540
     78       0.00000          -0.204937           -5.57662
     79       0.00000          -0.189633           -5.16018
     80       0.00000          -0.186120           -5.06457
     81       0.00000          -0.171851           -4.67630
     82       0.00000          -0.169120           -4.60199
     83       0.00000          -0.169076           -4.60080
     84       0.00000          -0.166055           -4.51858
     85       0.00000          -0.165741           -4.51003
     86       0.00000          -0.161088           -4.38343
     87       0.00000          -0.157349           -4.28168
     88       0.00000          -0.142879           -3.88794
     89       0.00000          -0.138001           -3.75519
     90       0.00000          -0.125593           -3.41755
     91       0.00000          -0.091146           -2.48021
     92       0.00000          -0.082294           -2.23935
     93       0.00000          -0.068095           -1.85296
     94       0.00000          -0.056463           -1.53644
     95       0.00000          -0.056129           -1.52734
     96       0.00000          -0.051753           -1.40826
     97       0.00000          -0.051661           -1.40576
     98       0.00000          -0.038238           -1.04050
     99       0.00000           0.013956            0.37977
    100       0.00000           0.051648            1.40541
    101       0.00000           0.082427            2.24296
    102       0.00000           0.090324            2.45785
    103       0.00000           0.099063            2.69564
    104       0.00000           0.102413            2.78680
    105       0.00000           0.160878            4.37771
    106       0.00000           0.177432            4.82817
    107       0.00000           0.233218            6.34617
    108       0.00000           0.244402            6.65052
    109       0.00000           0.300549            8.17836
    110       0.00000           0.322315            8.77062
    111       0.00000           0.328232            8.93164
    112       0.00000           0.354529            9.64722
    113       0.00000           0.365136            9.93587
    114       0.00000           0.370205           10.07379
    115       0.00000           0.399825           10.87980
    116       0.00000           0.414169           11.27012
    117       0.00000           0.466395           12.69125
    118       0.00000           0.479051           13.03565
    119       0.00000           0.492689           13.40674
    120       0.00000           0.493706           13.43441
    121       0.00000           0.510987           13.90467
    122       0.00000           0.515605           14.03033

  What follows are estimated values for band gap, HOMO, LUMO, etc.
  | They are estimated on a discrete k-point grid and not necessarily exact.
  | For converged numbers, create a DOS and/or band structure plot on a denser k-grid.

  Highest occupied state (VBM) at    -10.96812882 eV (relative to internal zero)
  | Occupation number:      2.00000000
  | K-point:       1 at    0.000000    0.000000    0.000000 (in units of recip. lattice)

  Lowest unoccupied state (CBM) at    -5.60540409 eV (relative to internal zero)
  | Occupation number:      0.00000000
  | K-point:       1 at    0.000000    0.000000    0.000000 (in units of recip. lattice)

  ESTIMATED overall HOMO-LUMO gap:      5.36272473 eV between HOMO at k-point 1 and LUMO at k-point 1
  | This appears to be a direct band gap.
  The gap value is above 0.2 eV. Unless you are using a very sparse k-point grid,
  this system is most likely an insulator or a semiconductor.

  Total energy components:
  | Sum of eigenvalues            :       -2399.58696568 Ha      -65296.08356426 eV
  | XC energy correction          :        -238.38544428 Ha       -6486.79798351 eV
[...]
     10       2.00000         -19.102123         -519.79521
     11       2.00000         -19.102123         -519.79521
     12       2.00000         -19.089120         -519.44139
     13       2.00000         -19.089120         -519.44139
     14       2.00000         -19.071253         -518.95520
     15       2.00000         -19.054960         -518.51185
     16       2.00000         -19.018905         -517.53073
     17       2.00000         -16.717679         -454.91118
     18       2.00000         -16.715675         -454.85666
     19       2.00000         -16.715534         -454.85281
     20       2.00000         -16.691808         -454.20721
     21       2.00000         -16.691785         -454.20657
     22       2.00000         -16.691535         -454.19978
     23       2.00000         -16.670114         -453.61689
     24       2.00000         -16.669920         -453.61159
     25       2.00000         -16.668341         -453.56864
     26       2.00000         -16.630118         -452.52852
     27       2.00000         -16.628180         -452.47580
     28       2.00000         -16.627172         -452.44837
     29       2.00000          -2.661239          -72.41600
     30       2.00000          -2.635265          -71.70921
     31       2.00000          -2.618255          -71.24634
     32       2.00000          -2.575586          -70.08527
     33       2.00000          -1.792434          -48.77461
     34       2.00000          -1.785615          -48.58905
     35       2.00000          -1.779550          -48.42402
     36       2.00000          -1.762870          -47.97014
     37       2.00000          -1.759274          -47.87227
     38       2.00000          -1.756825          -47.80563
     39       2.00000          -1.750532          -47.63440
     40       2.00000          -1.744614          -47.47336
     41       2.00000          -1.739128          -47.32409
     42       2.00000          -1.708232          -46.48335
     43       2.00000          -1.701827          -46.30906
     44       2.00000          -1.694247          -46.10281
     45       2.00000          -1.457052          -39.64841
     46       2.00000          -1.194640          -32.50782
     47       2.00000          -1.183779          -32.21227
     48       2.00000          -1.149169          -31.27047
     49       2.00000          -1.141296          -31.05626
     50       2.00000          -1.139361          -31.00360
     51       2.00000          -1.095171          -29.80112
     52       2.00000          -1.058821          -28.81199
     53       2.00000          -0.820447          -22.32549
     54       2.00000          -0.790312          -21.50549
     55       2.00000          -0.772566          -21.02258
     56       2.00000          -0.744797          -20.26695
     57       2.00000          -0.738746          -20.10231
     58       2.00000          -0.690924          -18.80101
     59       2.00000          -0.678564          -18.46466
     60       2.00000          -0.676259          -18.40194
     61       2.00000          -0.659595          -17.94850
     62       2.00000          -0.635512          -17.29316
     63       2.00000          -0.629664          -17.13404
     64       2.00000          -0.627900          -17.08604
     65       2.00000          -0.614784          -16.72912
     66       2.00000          -0.604022          -16.43629
     67       2.00000          -0.600397          -16.33763
     68       2.00000          -0.597917          -16.27016
     69       2.00000          -0.590579          -16.07046
     70       2.00000          -0.580735          -15.80259
     71       2.00000          -0.570946          -15.53622
     72       2.00000          -0.566208          -15.40731
     73       2.00000          -0.527980          -14.36706
     74       2.00000          -0.526112          -14.31623
     75       2.00000          -0.519181          -14.12762
     76       2.00000          -0.513455          -13.97182
     77       0.00000          -0.485220          -13.20351
     78       0.00000          -0.475878          -12.94929
     79       0.00000          -0.469771          -12.78311
     80       0.00000          -0.445331          -12.11806
     81       0.00000          -0.442768          -12.04832
     82       0.00000          -0.441297          -12.00830
     83       0.00000          -0.439396          -11.95658
     84       0.00000          -0.432401          -11.76623
     85       0.00000          -0.427563          -11.63457
     86       0.00000          -0.407869          -11.09868
     87       0.00000          -0.404451          -11.00566
     88       0.00000          -0.389285          -10.59297
     89       0.00000          -0.375862          -10.22774
     90       0.00000          -0.352896           -9.60280
     91       0.00000          -0.321860           -8.75827
     92       0.00000          -0.313347           -8.52661
     93       0.00000          -0.311655           -8.48056
     94       0.00000          -0.302954           -8.24379
     95       0.00000          -0.299662           -8.15422
     96       0.00000          -0.259311           -7.05622
     97       0.00000          -0.248035           -6.74938
     98       0.00000          -0.227664           -6.19504
     99       0.00000          -0.175401           -4.77289
    100       0.00000          -0.130695           -3.55641
    101       0.00000          -0.098382           -2.67711
    102       0.00000          -0.097923           -2.66461
    103       0.00000          -0.062111           -1.69012
    104       0.00000          -0.037826           -1.02928
    105       0.00000          -0.004194           -0.11413
    106       0.00000           0.003623            0.09857
    107       0.00000           0.047608            1.29549
    108       0.00000           0.067776            1.84427
    109       0.00000           0.107117            2.91481
    110       0.00000           0.112397            3.05848
    111       0.00000           0.155911            4.24257
    112       0.00000           0.177738            4.83649
    113       0.00000           0.189464            5.15558
    114       0.00000           0.192035            5.22554
    115       0.00000           0.228453            6.21652
    116       0.00000           0.236609            6.43845
    117       0.00000           0.270489            7.36038
    118       0.00000           0.280244            7.62584
    119       0.00000           0.288244            7.84352
    120       0.00000           0.291630            7.93565
    121       0.00000           0.310314            8.44406
    122       0.00000           0.311285            8.47048

  What follows are estimated values for band gap, HOMO, LUMO, etc.
  | They are estimated on a discrete k-point grid and not necessarily exact.
  | For converged numbers, create a DOS and/or band structure plot on a denser k-grid.

  Highest occupied state (VBM) at    -13.86873386 eV (relative to internal zero)
  | Occupation number:      2.00000000
  | K-point:      27 at    0.500000    0.250000    0.500000 (in units of recip. lattice)

  Lowest unoccupied state (CBM) at   -13.31435084 eV (relative to internal zero)
  | Occupation number:      0.00000000
  | K-point:      30 at    0.500000    0.500000    0.500000 (in units of recip. lattice)

  ESTIMATED overall HOMO-LUMO gap:      0.55438302 eV between HOMO at k-point 27 and LUMO at k-point 30
  | This appears to be an indirect band gap.
  | Smallest direct gap :      0.75973270 eV for k_point 30 at    0.500000    0.500000    0.500000 (in units of recip. lattice)
  The gap value is above 0.2 eV. Unless you are using a very sparse k-point grid,
  this system is most likely an insulator or a semiconductor.

  | Chemical Potential                          :   -13.60018914 eV
  | Note that, for insulating systems, the printed 'chemical potential' value is not uniquely defined.
  | It can be anywhere in the energy gap, as long as it correctly separates occupied and unoccupied states.
  | In systems with a gap, the physically relevant chemical potential is the VBM or HOMO.

  Self-consistency cycle converged.


------------------------------------------------------------
  End self-consistency iteration #    66       :  max(cpu_time)    wall_clock(cpu1)
  | Time for this iteration                     :        0.449 s           0.449 s
  | Charge density update                       :        0.000 s           0.000 s
  | Density mixing                              :        0.234 s           0.233 s
  | Hartree multipole update                    :        0.001 s           0.002 s
  | Hartree multipole summation                 :        0.054 s           0.053 s
  | Integration                                 :        0.122 s           0.122 s
  | Solution of K.-S. eqns.                     :        0.038 s           0.038 s
  | Total energy evaluation                     :        0.000 s           0.001 s

  Partial memory accounting:
  | Current value for overall tracked memory usage:
  |   Minimum:        7.180 MB (on task 13)
  |   Maximum:        7.651 MB (on task  1)
  |   Average:        7.251 MB
  | Peak value for overall tracked memory usage:
  |   Minimum:       15.696 MB (on task  4 after allocating gradient_basis_wave)
  |   Maximum:       16.791 MB (on task 24 after allocating gradient_basis_wave)
  |   Average:       16.252 MB
  | Largest tracked array allocation so far:
  |   Minimum:        3.105 MB (hamiltonian_shell on task  4)
  |   Maximum:        3.977 MB (hamiltonian_shell on task 24)
  |   Average:        3.633 MB
  Note:  These values currently only include a subset of arrays which are explicitly tracked.
  The "true" memory usage will be greater.
------------------------------------------------------------

  Energy and forces in a compact form:
  | Total energy uncorrected      :         -0.110259854199768E+06 eV
  | Total energy corrected        :         -0.110259854199768E+06 eV  <-- do not rely on this value for anything but (periodic) metals
  | Electronic free energy        :         -0.110259854199768E+06 eV

  ------------------------------------ 
  Start decomposition of the XC Energy 
  ------------------------------------ 
  X and C from original XC functional choice 
  Hartree-Fock Energy :          0.000000000 Ha              0.000000000 eV
  X Energy            :       -232.639375773 Ha          -6330.439504002 eV
  C Energy            :         -5.975876757 Ha           -162.611880151 eV
  XC Energy w/o HF    :       -238.615252530 Ha          -6493.051384153 eV
  Total XC Energy     :       -238.615252530 Ha          -6493.051384153 eV
  ------------------------------------ 
  LDA X and C from self-consistent density 
  X Energy LDA        :       -215.864502475 Ha          -5873.971976756 eV
  C Energy LDA        :        -11.767234009 Ha           -320.202729107 eV
  ------------------------------------ 
  End decomposition of the XC Energy 
  ------------------------------------ 

------------------------------------------------------------

  ------------------------------------------------------------
                   Starting Mulliken Analysis
  ------------------------------------------------------------

  Performing Mulliken charge analysis on all atoms.
  Full analysis will be written to separate file 'Mulliken.out'.
  Summary of the per-atom charge analysis:
  |
  |  atom       electrons          charge             l=0             l=1             l=2             l=3
  |     1        8.262281       -0.262281        3.899630        4.349421        0.013230
  |     2        8.609188       -0.609188        3.862365        4.735723        0.011101
  |     3       20.600937        1.399063        6.067577       12.414024        1.998473        0.120863
  |     4       20.917102        1.082898        6.037228       12.507160        2.230541        0.142173
  |     5        8.609193       -0.609193        3.862364        4.735728        0.011101
  |     6        8.588380       -0.588380        3.837854        4.739531        0.010996
  |     7        9.391821       -0.391821        3.925755        5.452996        0.013069
  |     8        8.642816       -0.642816        3.857487        4.775552        0.009777
  |     9       20.621745        1.378255        6.079904       12.408991        2.012787        0.120063
  |    10       20.897053        1.102947        6.046275       12.468861        2.245794        0.136123
  |    11        8.642811       -0.642811        3.857489        4.775546        0.009777
  |    12        8.216673       -0.216673        3.900655        4.301951        0.014066
  |
  | Total      152.000000        1.000000
 
  Writing Mulliken decomposition to disk ...

  Mulliken analysis                                       :  max(cpu_time)    wall_clock(cpu1)
  | Time for Mulliken analysis                            :          0.406               0.406
  | Total time for Mulliken analysis                      :          0.406               0.406
------------------------------------------------------------

------------------------------------------------------------------------------
  Final output of selected total energy values:

  The following output summarizes some interesting total energy values
  at the end of a run (AFTER all relaxation, molecular dynamics, etc.).

  | Total energy of the DFT / Hartree-Fock s.c.f. calculation      :        -110259.854199768 eV
  | Final zero-broadening corrected energy (caution - metals only) :        -110259.854199768 eV
  | For reference only, the value of 1 Hartree used in FHI-aims is :             27.211384500 eV
  | For reference only, the overall average (free atom contribution
  | + realspace contribution) of the electrostatic potential after
  | s.c.f. convergence is                                          :             -5.570810673 eV

  Before relying on these values, please be sure to understand exactly which
  total energy value is referred to by a given number. Different objects may
  all carry the same name 'total energy'. Definitions:

  Total energy of the DFT / Hartree-Fock s.c.f. calculation:
  | Note that this energy does not include ANY quantities calculated after the
  | s.c.f. cycle, in particular not ANY RPA, MP2, etc. many-body perturbation terms.

  Final zero-broadening corrected energy:
  | For metallic systems only, a broadening of the occupation numbers at the Fermi
  | level can be extrapolated back to zero broadening by an electron-gas inspired
  | formula. For all systems that are not real metals, this value can be
  | meaningless and should be avoided.

------------------------------------------------------------------------------
  Methods described in the following list of references were used in this FHI-aims run.
  If you publish the results, please make sure to cite these reference if they apply.
  FHI-aims is an academic code, and for our developers (often, Ph.D. students
  and postdocs), scientific credit in the community is essential.
  Thank you for helping us!

  For any use of FHI-aims, please cite:

    Volker Blum, Ralf Gehrke, Felix Hanke, Paula Havu, Ville Havu,
    Xinguo Ren, Karsten Reuter, and Matthias Scheffler
    'Ab initio molecular simulations with numeric atom-centered orbitals'
    Computer Physics Communications 180, 2175-2196 (2009)
    http://doi.org/10.1016/j.cpc.2009.06.022


  The provided symmetry information was generated with SPGlib:

    Atsushi Togo, Yusuke Seto, Dimitar Pashov
    SPGlib 1.7.3 obtained from http://spglib.sourceforge.net
    Licence: New BSD license
    Copyright (C) 2008 Atsushi Togo


  The ELSI infrastructure was used in your run to solve the Kohn-Sham electronic structure.
  Please check out https://wordpress.elsi-interchange.org to learn more.
  If scalability is important for your project, please acknowledge ELSI by citing:

    V. W-z. Yu, F. Corsetti, A. Garcia, W. P. Huhn, M. Jacquelin, W. Jia,
    B. Lange, L. Lin, J. Lu, W. Mi, A. Seifitokaldani, A. Vazquez-Mayagoitia,
    C. Yang, H. Yang, and V. Blum
    'ELSI: A unified software interface for Kohn-Sham electronic structure solvers'
    Computer Physics Communications 222, 267-285 (2018).
    http://doi.org/10.1016/j.cpc.2017.09.007


  For the real-space grid partitioning and parallelization used in this calculation, please cite:

    Ville Havu, Volker Blum, Paula Havu, and Matthias Scheffler,
    'Efficient O(N) integration for all-electron electronic structure calculation'
    'using numerically tabulated basis functions'
    Journal of Computational Physics 228, 8367-8379 (2009).
    http://doi.org/10.1016/j.jcp.2009.08.008

  Of course, there are many other important community references, e.g., those cited in the
  above references. Our list is limited to references that describe implementations in the
  FHI-aims code. The reason is purely practical (length of this list) - please credit others as well.

   One or more s.c.f. cycles took more than 50 s.c.f. iterations.
   It might be worth adjusting your convergence settings. For example,
   metals need a larger broadening and a smaller "charge_mix_param" value than semiconductors.

------------------------------------------------------------
          Leaving FHI-aims.
          Date     :  20241014, Time     :  145705.770

          Computational steps:
          | Number of self-consistency cycles          :           66
          | Number of SCF (re)initializations          :            1

          Detailed time accounting                     :  max(cpu_time)    wall_clock(cpu1)
          | Total time                                  :       47.343 s          47.342 s
          | Preparation time                            :        0.296 s           0.294 s
          | Boundary condition initalization            :        0.045 s           0.045 s
          | Grid partitioning                           :        0.070 s           0.070 s
          | Preloading free-atom quantities on grid     :        0.123 s           0.123 s
          | Free-atom superposition energy              :        0.015 s           0.015 s
          | Total time for integrations                 :        8.344 s           8.342 s
          | Total time for solution of K.-S. equations  :        2.633 s           2.633 s
          | Total time for density update               :       16.235 s          16.234 s
          | Total time for mixing & preconditioning     :       15.456 s          15.457 s
          | Total time for Hartree multipole update     :        0.074 s           0.070 s
          | Total time for Hartree multipole sum        :        3.540 s           3.540 s
          | Total time for total energy evaluation      :        0.011 s           0.007 s
          | Total time for scaled ZORA corrections      :        0.000 s           0.000 s
          | Total time for Mulliken analysis            :        0.406 s           0.406 s

          Partial memory accounting:
          | Residual value for overall tracked memory usage across tasks:     0.000000 MB (should be 0.000000 MB)
          | Peak values for overall tracked memory usage:
          |   Minimum:       15.696 MB (on task  4 after allocating gradient_basis_wave)
          |   Maximum:       16.791 MB (on task 24 after allocating gradient_basis_wave)
          |   Average:       16.252 MB
          | Largest tracked array allocation:
          |   Minimum:        3.105 MB (hamiltonian_shell on task  4)
          |   Maximum:        3.977 MB (hamiltonian_shell on task 24)
          |   Average:        3.633 MB
          Note:  These values currently only include a subset of arrays which are explicitly tracked.
          The "true" memory usage will be greater.

          Have a nice day.
------------------------------------------------------------
