------------------------------------------------------------
          Invoking FHI-aims ...

          When using FHI-aims, please cite the following reference:

            Volker Blum, Ralf Gehrke, Felix Hanke, Paula Havu,
            Ville Havu, Xinguo Ren, Karsten Reuter, and Matthias Scheffler,
            'Ab Initio Molecular Simulations with Numeric Atom-Centered Orbitals',
            Computer Physics Communications 180, 2175-2196 (2009)

          In addition, many other developments in FHI-aims are likely important for
          your particular application. If so, please cite them. A partial list of references
          is written at the end of this file. Thank you for giving credit to the authors
          of these developments.

          For general information about FHI-aims please find us at

            https://fhi-aims.org

          Online tutorials can be found at

            https://fhi-aims-club.gitlab.io/tutorials/tutorials-overview/

          For any questions about FHI-aims, please visit our slack channel at

            https://fhi-aims.slack.com

          and our main development and support site at

            https://aims-git.rz-berlin.mpg.de .

          The latter site, in particular, has a wiki to collect information, as well
          as an issue tracker to log discussions, suggest improvements, and report issues
          or bugs. https://aims-git.rz-berlin.mpg.de is also the main development site
          of the project and all new and updated code versions can be obtained there.
          Please send an email to aims-coordinators@fhi-berlin.mpg.de and we will add
          you to these sites. They are for you and everyone is welcome there.

------------------------------------------------------------



  Date     :  20241020, Time     :  174612.315
  Time zero on CPU 1             :   0.503896000000000E+00  s.
  Internal wall clock time zero  :           498678372.315  s.

  FHI-aims created a unique identifier for this run for later identification
  aims_uuid : B1360558-DF79-4B19-A4D7-8CCB62F58B67

  Build configuration of the current instance of FHI-aims
  -------------------------------------------------------
  FHI-aims version      : 240605
  Commit number         : b001b2e18
  CMake host system     : Linux-6.5.0-41-generic
  CMake version         : 3.22.1
  Fortran compiler      : /opt/intel/oneapi/mpi/2021.12/bin/mpiifort (IntelLLVM) version 2024.1.0
  Fortran compiler flags: -fc=ifx -O3 -ip -fp-model precise
  C compiler            : /opt/intel/oneapi/mpi/2021.12/bin/mpiicc (IntelLLVM) version 2024.1.0
  C compiler flags      : -cc=icx -O3 -ip -fp-model precise -std=gnu99
  C++ compiler          : /opt/intel/oneapi/mpi/2021.12/bin/mpiicpc (IntelLLVM) version 2024.1.0
  C++ compiler flags    : -cxx=icpx -O3 -ip -fp-model precise -std=c++11
  HIP compiler          :
  HIP compiler flags    :
  HIP GPU arch          :
  Using MPI
  Using ScaLAPACK
  Using LibXC
  Using i-PI
  Using RLSY
  Linking against: /opt/intel/oneapi/mkl/2024.1/lib/intel64/libmkl_intel_lp64.so
                   /opt/intel/oneapi/mkl/2024.1/lib/intel64/libmkl_sequential.so
                   /opt/intel/oneapi/mkl/2024.1/lib/intel64/libmkl_core.so
                   /opt/intel/oneapi/mkl/2024.1/lib/intel64/libmkl_blacs_intelmpi_lp64.so
                   /opt/intel/oneapi/mkl/2024.1/lib/intel64/libmkl_scalapack_lp64.so
                   /opt/intel/oneapi/mkl/2024.1/lib/intel64/libmkl_core.so

  Using       64 parallel tasks.
  Task        0 on host RSL-arvutus reporting.
  Task        1 on host RSL-arvutus reporting.
  Task        2 on host RSL-arvutus reporting.
  Task        3 on host RSL-arvutus reporting.
  Task        4 on host RSL-arvutus reporting.
  Task        5 on host RSL-arvutus reporting.
  Task        6 on host RSL-arvutus reporting.
  Task        7 on host RSL-arvutus reporting.
  Task        8 on host RSL-arvutus reporting.
  Task        9 on host RSL-arvutus reporting.
  Task       10 on host RSL-arvutus reporting.
  Task       11 on host RSL-arvutus reporting.
  Task       12 on host RSL-arvutus reporting.
  Task       13 on host RSL-arvutus reporting.
  Task       14 on host RSL-arvutus reporting.
  Task       15 on host RSL-arvutus reporting.
  Task       16 on host RSL-arvutus reporting.
  Task       17 on host RSL-arvutus reporting.
  Task       18 on host RSL-arvutus reporting.
  Task       19 on host RSL-arvutus reporting.
  Task       20 on host RSL-arvutus reporting.
  Task       21 on host RSL-arvutus reporting.
  Task       22 on host RSL-arvutus reporting.
  Task       23 on host RSL-arvutus reporting.
  Task       24 on host RSL-arvutus reporting.
  Task       25 on host RSL-arvutus reporting.
  Task       26 on host RSL-arvutus reporting.
  Task       27 on host RSL-arvutus reporting.
  Task       28 on host RSL-arvutus reporting.
  Task       29 on host RSL-arvutus reporting.
  Task       30 on host RSL-arvutus reporting.
  Task       31 on host RSL-arvutus reporting.
  Task       32 on host RSL-arvutus reporting.
  Task       33 on host RSL-arvutus reporting.
  Task       34 on host RSL-arvutus reporting.
  Task       35 on host RSL-arvutus reporting.
  Task       36 on host RSL-arvutus reporting.
  Task       37 on host RSL-arvutus reporting.
  Task       38 on host RSL-arvutus reporting.
  Task       39 on host RSL-arvutus reporting.
  Task       40 on host RSL-arvutus reporting.
  Task       41 on host RSL-arvutus reporting.
  Task       42 on host RSL-arvutus reporting.
  Task       43 on host RSL-arvutus reporting.
  Task       44 on host RSL-arvutus reporting.
  Task       45 on host RSL-arvutus reporting.
  Task       46 on host RSL-arvutus reporting.
  Task       47 on host RSL-arvutus reporting.
  Task       48 on host RSL-arvutus reporting.
  Task       49 on host RSL-arvutus reporting.
  Task       50 on host RSL-arvutus reporting.
  Task       51 on host RSL-arvutus reporting.
  Task       52 on host RSL-arvutus reporting.
  Task       53 on host RSL-arvutus reporting.
  Task       54 on host RSL-arvutus reporting.
  Task       55 on host RSL-arvutus reporting.
  Task       56 on host RSL-arvutus reporting.
  Task       57 on host RSL-arvutus reporting.
  Task       58 on host RSL-arvutus reporting.
  Task       59 on host RSL-arvutus reporting.
  Task       60 on host RSL-arvutus reporting.
  Task       61 on host RSL-arvutus reporting.
  Task       62 on host RSL-arvutus reporting.
  Task       63 on host RSL-arvutus reporting.

  Memory overcommitment is allowed on your operating system.

  Obtaining array dimensions for all initial allocations:
  
  -----------------------------------------------------------------------
  Parsing control.in (first pass over file, find array dimensions only).
  The contents of control.in will be repeated verbatim below
  unless switched off by setting 'verbatim_writeout .false.' .
  in the first line of control.in .
  -----------------------------------------------------------------------
  
    xc              pbe
    relativistic    zora scalar 1.0e-12
    KS_method	  serial
    k_grid          1 2 1
  
    spin		  collinear
    default_initial_moment	0.0
    charge          1
    force_occupation_projector	512 1 0.0 257 1792
    restart_read_only   restart
  
    output          Mulliken
  
  ################################################################################
  #
  #  FHI-aims code project
  #  VB, Fritz-Haber Institut, 2009
  #
  #  Suggested "light" defaults for Ti atom (to be pasted into control.in file)
  #  Be sure to double-check any results obtained with these settings for post-processing,
  #  e.g., with the "tight" defaults and larger basis sets.
  #
  ################################################################################
    species        Ti
  #     global species definitions
      nucleus             22
      mass                47.867
  #
      l_hartree           4
  #
      cut_pot             3.5          1.5  1.0
      basis_dep_cutoff    1e-4
  #
      radial_base         48 5.0
      radial_multiplier   1
      angular_grids       specified
        division   0.5171   50
        division   0.9824  110
        division   1.2917  194
        division   1.4940  302
  #      division   1.6934  434
  #      division   1.8425  590
  #      division   2.1901  770
  #      division   2.2896  974
  #      division   2.8244 1202
  #      outer_grid  974
        outer_grid  302
  ################################################################################
  #
  #  Definition of "minimal" basis
  #
  ################################################################################
  #     valence basis states
      valence      4  s   2.
      valence      3  p   6.
      valence      3  d   2.
  #     ion occupancy
      ion_occ      4  s   1.
      ion_occ      3  p   6.
      ion_occ      3  d   1.
  ################################################################################
  #
  #  Suggested additional basis functions. For production calculations,
  #  uncomment them one after another (the most important basis functions are
  #  listed first).
  #
  #  Constructed for dimers: 1.6 A, 1.85 A, 2.5 A, 3.25 A, 4.25 A
  #
  ################################################################################
  #  "First tier" - improvements: -396.25 meV to -19.41 meV
       hydro 4 f 8
       hydro 3 d 2.7
       ionic 4 p auto
  #     hydro 5 g 11.6
       ionic 4 s auto
  #  "Second tier" - improvements: -16.30 meV to -2.03 meV
  #     hydro 3 d 4.4
  #     hydro 6 h 16
  #     hydro 4 f 9.4
  #     hydro 4 p 4.5
  #     hydro 1 s 0.5
  #  "Third tier" - improvements: -6.28 meV to -0.37 meV
  #     hydro 4 d 6.4
  #     hydro 4 f 10
  #     hydro 5 g 12
  #     hydro 2 p 1.7
  #     hydro 6 h 16.4
  #     hydro 4 s 3.8
  #  Further basis functions: -0.45 meV and smaller improvements
  #     hydro 3 d 8.8
  #     hydro 5 p 18
  #     hydro 4 f 22.4
  #     hydro 5 f 7.2  # -0.16 meV
  #     hydro 3 d 2.1  # -0.11 meV
  #     hydro 5 g 7.4  # -0.09 meV
  
  
  ################################################################################
  #
  #  FHI-aims code project
  #  VB, Fritz-Haber Institut, 2009
  #
  #  Suggested "light" defaults for O atom (to be pasted into control.in file)
  #  Be sure to double-check any results obtained with these settings for post-processing,
  #  e.g., with the "tight" defaults and larger basis sets.
  #
  ################################################################################
    species        O
  #     global species definitions
      nucleus             8
      mass                15.9994
  #
      l_hartree           4
  #
      cut_pot             3.5  1.5  1.0
      basis_dep_cutoff    1e-4
  #
      radial_base         36 5.0
      radial_multiplier   1
       angular_grids specified
        division   0.2659   50
        division   0.4451  110
        division   0.6052  194
        division   0.7543  302
  #      division   0.8014  434
  #      division   0.8507  590
  #      division   0.8762  770
  #      division   0.9023  974
  #      division   1.2339 1202
  #      outer_grid 974
        outer_grid 302
  ################################################################################
  #
  #  Definition of "minimal" basis
  #
  ################################################################################
  #     valence basis states
      valence      2  s   2.
      valence      2  p   4.
  #     ion occupancy
      ion_occ      2  s   1.
      ion_occ      2  p   3.
  ################################################################################
  #
  #  Suggested additional basis functions. For production calculations,
  #  uncomment them one after another (the most important basis functions are
  #  listed first).
  #
  #  Constructed for dimers: 1.0 A, 1.208 A, 1.5 A, 2.0 A, 3.0 A
  #
  ################################################################################
  #  "First tier" - improvements: -699.05 meV to -159.38 meV
       hydro 2 p 1.8
       hydro 3 d 7.6
       hydro 3 s 6.4
  #  "Second tier" - improvements: -49.91 meV to -5.39 meV
  #     hydro 4 f 11.6
  #     hydro 3 p 6.2
  #     hydro 3 d 5.6
  #     hydro 5 g 17.6
  #     hydro 1 s 0.75
  #  "Third tier" - improvements: -2.83 meV to -0.50 meV
  #     ionic 2 p auto
  #     hydro 4 f 10.8
  #     hydro 4 d 4.7
  #     hydro 2 s 6.8
  #  "Fourth tier" - improvements: -0.40 meV to -0.12 meV
  #     hydro 3 p 5
  #     hydro 3 s 3.3
  #     hydro 5 g 15.6
  #     hydro 4 f 17.6
  #     hydro 4 d 14
  # Further basis functions - -0.08 meV and below
  #     hydro 3 s 2.1
  #     hydro 4 d 11.6
  #     hydro 3 p 16
  #     hydro 2 s 17.2
  
  ################################################################################
  #
  #  "Core" basis functions and numerical settings for O atom.
  #  Based on “tight” defaults (V. Blum, 2009).
  #
  ################################################################################
    species        O1
  #     global species definitions
      nucleus             8
      mass                15.9994
  #
      l_hartree           6
  #
      cut_pot             4.0  2.0  1.0
      basis_dep_cutoff    1e-4
  #
      radial_base         36 7.0
      radial_multiplier   2
       angular_grids specified
        division   0.1817   50
        division   0.3417  110
        division   0.4949  194
        division   0.6251  302
        division   0.8014  434
  #      division   0.8507  590
  #      division   0.8762  770
  #      division   0.9023  974
  #      division   1.2339 1202
  #      outer_grid 974
        outer_grid  434
  ################################################################################
  #
  #  Definition of "minimal" basis
  #
  ################################################################################
  #     valence basis states
      valence      2  s   2.
      valence      2  p   4.
  #     ion occupancy
      ion_occ      2  s   1.
      ion_occ      2  p   3.
  ################################################################################
  #
  #  Suggested additional basis functions. For production calculations,
  #  uncomment them one after another (the most important basis functions are
  #  listed first).
  #
  #  Constructed for dimers: 1.0 A, 1.208 A, 1.5 A, 2.0 A, 3.0 A
  #
  ################################################################################
  #  "First tier" - improvements: -699.05 meV to -159.38 meV
       hydro 2 p 1.8
       hydro 3 d 7.6
       hydro 3 s 6.4
  #  "Second tier" - improvements: -49.91 meV to -5.39 meV
       hydro 4 f 11.6
       hydro 3 p 6.2
       hydro 3 d 5.6
       hydro 5 g 17.6
       hydro 1 s 0.75
  #  "Third tier" - improvements: -2.83 meV to -0.50 meV
       ionic 2 p auto
       hydro 4 f 10.8
       hydro 4 d 4.7
       hydro 2 s 6.8
  #  "Fourth tier" - improvements: -0.40 meV to -0.12 meV
  #     hydro 3 p 5
  #     hydro 3 s 3.3
  #     hydro 5 g 15.6
  #     hydro 4 f 17.6
  #     hydro 4 d 14
  # Further basis functions - -0.08 meV and below
  #     hydro 3 s 2.1
  #     hydro 4 d 11.6
  #     hydro 3 p 16
  #     hydro 2 s 17.2
  
  # Additional basis functions for atom with a core hole
       hydro 1 s 12.0
       hydro 1 s 10.0
       hydro 1 s 6.0
       hydro 2 s 10.0
       hydro 2 p 8.0
       hydro 2 p 6.0
       hydro 3 d 8.0
  
  -----------------------------------------------------------------------
  Completed first pass over input file control.in .
  -----------------------------------------------------------------------
  
  
  -----------------------------------------------------------------------
  Parsing geometry.in (first pass over file, find array dimensions only).
  The contents of geometry.in will be repeated verbatim below
  unless switched off by setting 'verbatim_writeout .false.' .
  in the first line of geometry.in .
  -----------------------------------------------------------------------
  
  lattice_vector 26.264506 0.000000 0.000000
  lattice_vector 0.000000 11.891531 0.000000
  lattice_vector 0.000000 0.000000 87.542649
  
  atom_frac 0.249998 0.000000 0.365610 O
  atom_frac 0.076389 0.125000 0.380194 O
  atom_frac 0.124999 0.000000 0.380195 Ti
  atom_frac 0.249999 0.125000 0.380195 Ti
  atom_frac 0.173610 0.125000 0.380195 O
  atom_frac 0.000000 0.000000 0.394779 O
  atom_frac 0.124998 0.000000 0.403114 O
  atom_frac 0.201388 0.125000 0.417699 O
  atom_frac 0.249999 0.000000 0.417699 Ti
  atom_frac 0.124999 0.125000 0.417699 Ti
  atom_frac 0.048609 0.125000 0.417699 O
  atom_frac 0.125000 0.000000 0.432283 O
  atom_frac 0.249997 0.000000 0.440619 O
  atom_frac 0.076388 0.125000 0.455203 O
  atom_frac 0.124998 0.000000 0.455203 Ti
  atom_frac 0.249998 0.125000 0.455203 Ti
  atom_frac 0.173608 0.125000 0.455204 O
  atom_frac 0.249999 0.000000 0.469788 O
  atom_frac 0.124996 0.000000 0.478123 O
  atom_frac 0.201387 0.125000 0.492707 O
  atom_frac 0.249997 0.000000 0.492708 Ti
  atom_frac 0.124997 0.125000 0.492708 Ti
  atom_frac 0.048608 0.125000 0.492708 O
  atom_frac 0.124998 0.000000 0.507292 O
  atom_frac 0.249996 0.000000 0.515628 O
  atom_frac 0.076386 0.125000 0.530212 O
  atom_frac 0.124997 0.000000 0.530212 Ti
  atom_frac 0.249997 0.125000 0.530212 Ti
  atom_frac 0.173607 0.125000 0.530212 O
  atom_frac 0.249998 0.000000 0.544797 O
  atom_frac 0.124995 0.000000 0.553132 O
  atom_frac 0.201386 0.125000 0.567716 O
  atom_frac 0.249996 0.000000 0.567717 Ti
  atom_frac 0.124996 0.125000 0.567717 Ti
  atom_frac 0.048606 0.125000 0.567717 O
  atom_frac 0.124997 0.000000 0.582301 O
  atom_frac 0.249994 0.000000 0.590636 O
  atom_frac 0.076385 0.125000 0.605221 O
  atom_frac 0.124995 0.000000 0.605221 Ti
  atom_frac 0.249995 0.125000 0.605221 Ti
  atom_frac 0.173606 0.125000 0.605221 O
  atom_frac 0.249996 0.000000 0.619805 O
  atom_frac 0.124994 0.000000 0.628141 O
  atom_frac 0.201384 0.125000 0.642725 O
  atom_frac 0.249995 0.000000 0.642725 Ti
  atom_frac 0.124995 0.125000 0.642725 Ti
  atom_frac 0.048605 0.125000 0.642726 O
  atom_frac 0.124995 0.000000 0.657310 O
  atom_frac 0.249998 0.250000 0.365610 O
  atom_frac 0.076389 0.375000 0.380194 O
  atom_frac 0.124999 0.250000 0.380195 Ti
  atom_frac 0.249999 0.375000 0.380195 Ti
  atom_frac 0.173610 0.375000 0.380195 O
  atom_frac 0.000000 0.250000 0.394779 O
  atom_frac 0.124998 0.250000 0.403114 O
  atom_frac 0.201388 0.375000 0.417699 O
  atom_frac 0.249999 0.250000 0.417699 Ti
  atom_frac 0.124999 0.375000 0.417699 Ti
  atom_frac 0.048609 0.375000 0.417699 O
  atom_frac 0.125000 0.250000 0.432283 O
  atom_frac 0.249997 0.250000 0.440619 O
  atom_frac 0.076388 0.375000 0.455203 O
  atom_frac 0.124998 0.250000 0.455203 Ti
  atom_frac 0.249998 0.375000 0.455203 Ti
  atom_frac 0.173608 0.375000 0.455204 O
  atom_frac 0.249999 0.250000 0.469788 O
  atom_frac 0.124996 0.250000 0.478123 O
  atom_frac 0.201387 0.375000 0.492707 O
  atom_frac 0.249997 0.250000 0.492708 Ti
  atom_frac 0.124997 0.375000 0.492708 Ti
  atom_frac 0.048608 0.375000 0.492708 O
  atom_frac 0.124998 0.250000 0.507292 O
  atom_frac 0.249996 0.250000 0.515628 O
  atom_frac 0.076386 0.375000 0.530212 O
  atom_frac 0.124997 0.250000 0.530212 Ti
  atom_frac 0.249997 0.375000 0.530212 Ti
  atom_frac 0.173607 0.375000 0.530212 O
  atom_frac 0.249998 0.250000 0.544797 O
  atom_frac 0.124995 0.250000 0.553132 O
  atom_frac 0.201386 0.375000 0.567716 O
  atom_frac 0.249996 0.250000 0.567717 Ti
  atom_frac 0.124996 0.375000 0.567717 Ti
  atom_frac 0.048606 0.375000 0.567717 O
  atom_frac 0.124997 0.250000 0.582301 O
  atom_frac 0.249994 0.250000 0.590636 O
  atom_frac 0.076385 0.375000 0.605221 O
  atom_frac 0.124995 0.250000 0.605221 Ti
  atom_frac 0.249995 0.375000 0.605221 Ti
  atom_frac 0.173606 0.375000 0.605221 O
  atom_frac 0.249996 0.250000 0.619805 O
  atom_frac 0.124994 0.250000 0.628141 O
  atom_frac 0.201384 0.375000 0.642725 O
  atom_frac 0.249995 0.250000 0.642725 Ti
  atom_frac 0.124995 0.375000 0.642725 Ti
  atom_frac 0.048605 0.375000 0.642726 O
  atom_frac 0.124995 0.250000 0.657310 O
  atom_frac 0.249998 0.500000 0.365610 O
  atom_frac 0.076389 0.625000 0.380194 O
  atom_frac 0.124999 0.500000 0.380195 Ti
  atom_frac 0.249999 0.625000 0.380195 Ti
  atom_frac 0.173610 0.625000 0.380195 O
  atom_frac 0.000000 0.500000 0.394779 O
  atom_frac 0.124998 0.500000 0.403114 O
  atom_frac 0.201388 0.625000 0.417699 O
  atom_frac 0.249999 0.500000 0.417699 Ti
  atom_frac 0.124999 0.625000 0.417699 Ti
  atom_frac 0.048609 0.625000 0.417699 O
  atom_frac 0.125000 0.500000 0.432283 O
  atom_frac 0.249997 0.500000 0.440619 O
  atom_frac 0.076388 0.625000 0.455203 O
  atom_frac 0.124998 0.500000 0.455203 Ti
  atom_frac 0.249998 0.625000 0.455203 Ti
  atom_frac 0.173608 0.625000 0.455204 O
  atom_frac 0.249999 0.500000 0.469788 O
  atom_frac 0.124996 0.500000 0.478123 O
  atom_frac 0.201387 0.625000 0.492707 O
  atom_frac 0.249997 0.500000 0.492708 Ti
  atom_frac 0.124997 0.625000 0.492708 Ti
  atom_frac 0.048608 0.625000 0.492708 O
  atom_frac 0.124998 0.500000 0.507292 O
  atom_frac 0.249996 0.500000 0.515628 O
  atom_frac 0.076386 0.625000 0.530212 O
  atom_frac 0.124997 0.500000 0.530212 Ti
  atom_frac 0.249997 0.625000 0.530212 Ti
  atom_frac 0.173607 0.625000 0.530212 O
  atom_frac 0.249998 0.500000 0.544797 O
  atom_frac 0.124995 0.500000 0.553132 O
  atom_frac 0.201386 0.625000 0.567716 O
  atom_frac 0.249996 0.500000 0.567717 Ti
  atom_frac 0.124996 0.625000 0.567717 Ti
  atom_frac 0.048606 0.625000 0.567717 O
  atom_frac 0.124997 0.500000 0.582301 O
  atom_frac 0.249994 0.500000 0.590636 O
  atom_frac 0.076385 0.625000 0.605221 O
  atom_frac 0.124995 0.500000 0.605221 Ti
  atom_frac 0.249995 0.625000 0.605221 Ti
  atom_frac 0.173606 0.625000 0.605221 O
  atom_frac 0.249996 0.500000 0.619805 O
  atom_frac 0.124994 0.500000 0.628141 O
  atom_frac 0.201384 0.625000 0.642725 O
  atom_frac 0.249995 0.500000 0.642725 Ti
  atom_frac 0.124995 0.625000 0.642725 Ti
  atom_frac 0.048605 0.625000 0.642726 O
  atom_frac 0.124995 0.500000 0.657310 O
  atom_frac 0.249998 0.750000 0.365610 O
  atom_frac 0.076389 0.875000 0.380194 O
  atom_frac 0.124999 0.750000 0.380195 Ti
  atom_frac 0.249999 0.875000 0.380195 Ti
  atom_frac 0.173610 0.875000 0.380195 O
  atom_frac 0.000000 0.750000 0.394779 O
  atom_frac 0.124998 0.750000 0.403114 O
  atom_frac 0.201388 0.875000 0.417699 O
  atom_frac 0.249999 0.750000 0.417699 Ti
  atom_frac 0.124999 0.875000 0.417699 Ti
  atom_frac 0.048609 0.875000 0.417699 O
  atom_frac 0.125000 0.750000 0.432283 O
  atom_frac 0.249997 0.750000 0.440619 O
  atom_frac 0.076388 0.875000 0.455203 O
  atom_frac 0.124998 0.750000 0.455203 Ti
  atom_frac 0.249998 0.875000 0.455203 Ti
  atom_frac 0.173608 0.875000 0.455204 O
  atom_frac 0.249999 0.750000 0.469788 O
  atom_frac 0.124996 0.750000 0.478123 O
  atom_frac 0.201387 0.875000 0.492707 O
  atom_frac 0.249997 0.750000 0.492708 Ti
  atom_frac 0.124997 0.875000 0.492708 Ti
  atom_frac 0.048608 0.875000 0.492708 O
  atom_frac 0.124998 0.750000 0.507292 O
  atom_frac 0.249996 0.750000 0.515628 O
  atom_frac 0.076386 0.875000 0.530212 O
  atom_frac 0.124997 0.750000 0.530212 Ti
  atom_frac 0.249997 0.875000 0.530212 Ti
  atom_frac 0.173607 0.875000 0.530212 O
  atom_frac 0.249998 0.750000 0.544797 O
  atom_frac 0.124995 0.750000 0.553132 O
  atom_frac 0.201386 0.875000 0.567716 O
  atom_frac 0.249996 0.750000 0.567717 Ti
  atom_frac 0.124996 0.875000 0.567717 Ti
  atom_frac 0.048606 0.875000 0.567717 O
  atom_frac 0.124997 0.750000 0.582301 O
  atom_frac 0.249994 0.750000 0.590636 O
  atom_frac 0.076385 0.875000 0.605221 O
  atom_frac 0.124995 0.750000 0.605221 Ti
  atom_frac 0.249995 0.875000 0.605221 Ti
  atom_frac 0.173606 0.875000 0.605221 O
  atom_frac 0.249996 0.750000 0.619805 O
  atom_frac 0.124994 0.750000 0.628141 O
  atom_frac 0.201384 0.875000 0.642725 O
  atom_frac 0.249995 0.750000 0.642725 Ti
  atom_frac 0.124995 0.875000 0.642725 Ti
  atom_frac 0.048605 0.875000 0.642726 O
  atom_frac 0.124995 0.750000 0.657310 O
  atom_frac 0.499998 0.000000 0.365610 O
  atom_frac 0.326389 0.125000 0.380194 O
  atom_frac 0.374999 0.000000 0.380195 Ti
  atom_frac 0.499999 0.125000 0.380195 Ti
  atom_frac 0.423610 0.125000 0.380195 O
  atom_frac 0.250000 0.000000 0.394779 O
  atom_frac 0.374998 0.000000 0.403114 O
  atom_frac 0.451388 0.125000 0.417699 O
  atom_frac 0.499999 0.000000 0.417699 Ti
  atom_frac 0.374999 0.125000 0.417699 Ti
  atom_frac 0.298609 0.125000 0.417699 O
  atom_frac 0.375000 0.000000 0.432283 O
  atom_frac 0.499997 0.000000 0.440619 O
  atom_frac 0.326388 0.125000 0.455203 O
  atom_frac 0.374998 0.000000 0.455203 Ti
  atom_frac 0.499998 0.125000 0.455203 Ti
  atom_frac 0.423608 0.125000 0.455204 O
  atom_frac 0.499999 0.000000 0.469788 O
  atom_frac 0.374996 0.000000 0.478123 O
  atom_frac 0.451387 0.125000 0.492707 O
  atom_frac 0.499997 0.000000 0.492708 Ti
  atom_frac 0.374997 0.125000 0.492708 Ti
  atom_frac 0.298608 0.125000 0.492708 O
  atom_frac 0.374998 0.000000 0.507292 O
  atom_frac 0.499996 0.000000 0.515628 O
  atom_frac 0.326386 0.125000 0.530212 O
  atom_frac 0.374997 0.000000 0.530212 Ti
  atom_frac 0.499997 0.125000 0.530212 Ti
  atom_frac 0.423607 0.125000 0.530212 O
  atom_frac 0.499998 0.000000 0.544797 O
  atom_frac 0.374995 0.000000 0.553132 O
  atom_frac 0.451386 0.125000 0.567716 O
  atom_frac 0.499996 0.000000 0.567717 Ti
  atom_frac 0.374996 0.125000 0.567717 Ti
  atom_frac 0.298606 0.125000 0.567717 O
  atom_frac 0.374997 0.000000 0.582301 O
  atom_frac 0.499994 0.000000 0.590636 O
  atom_frac 0.326385 0.125000 0.605221 O
  atom_frac 0.374995 0.000000 0.605221 Ti
  atom_frac 0.499995 0.125000 0.605221 Ti
  atom_frac 0.423606 0.125000 0.605221 O
  atom_frac 0.499996 0.000000 0.619805 O
  atom_frac 0.374994 0.000000 0.628141 O
  atom_frac 0.451384 0.125000 0.642725 O
  atom_frac 0.499995 0.000000 0.642725 Ti
  atom_frac 0.374995 0.125000 0.642725 Ti
  atom_frac 0.298605 0.125000 0.642726 O
  atom_frac 0.374995 0.000000 0.657310 O
  atom_frac 0.499998 0.250000 0.365610 O
  atom_frac 0.326389 0.375000 0.380194 O
  atom_frac 0.374999 0.250000 0.380195 Ti
  atom_frac 0.499999 0.375000 0.380195 Ti
  atom_frac 0.423610 0.375000 0.380195 O
  atom_frac 0.250000 0.250000 0.394779 O
  atom_frac 0.374998 0.250000 0.403114 O
  atom_frac 0.451388 0.375000 0.417699 O
  atom_frac 0.499999 0.250000 0.417699 Ti
  atom_frac 0.374999 0.375000 0.417699 Ti
  atom_frac 0.298609 0.375000 0.417699 O
  atom_frac 0.375000 0.250000 0.432283 O
  atom_frac 0.499997 0.250000 0.440619 O
  atom_frac 0.326388 0.375000 0.455203 O
  atom_frac 0.374998 0.250000 0.455203 Ti
  atom_frac 0.499998 0.375000 0.455203 Ti
  atom_frac 0.423608 0.375000 0.455204 O
  atom_frac 0.499999 0.250000 0.469788 O
  atom_frac 0.374996 0.250000 0.478123 O
  atom_frac 0.451387 0.375000 0.492707 O
  atom_frac 0.499997 0.250000 0.492708 Ti
  atom_frac 0.374997 0.375000 0.492708 Ti
  atom_frac 0.298608 0.375000 0.492708 O
  atom_frac 0.374998 0.250000 0.507292 O
  atom_frac 0.499996 0.250000 0.515628 O
  atom_frac 0.326386 0.375000 0.530212 O
  atom_frac 0.374997 0.250000 0.530212 Ti
  atom_frac 0.499997 0.375000 0.530212 Ti
  atom_frac 0.423607 0.375000 0.530212 O
  atom_frac 0.499998 0.250000 0.544797 O
  atom_frac 0.374995 0.250000 0.553132 O
  atom_frac 0.451386 0.375000 0.567716 O
  atom_frac 0.499996 0.250000 0.567717 Ti
  atom_frac 0.374996 0.375000 0.567717 Ti
  atom_frac 0.298606 0.375000 0.567717 O
  atom_frac 0.374997 0.250000 0.582301 O
  atom_frac 0.499994 0.250000 0.590636 O
  atom_frac 0.326385 0.375000 0.605221 O
  atom_frac 0.374995 0.250000 0.605221 Ti
  atom_frac 0.499995 0.375000 0.605221 Ti
  atom_frac 0.423606 0.375000 0.605221 O
  atom_frac 0.499996 0.250000 0.619805 O
  atom_frac 0.374994 0.250000 0.628141 O
  atom_frac 0.451384 0.375000 0.642725 O
  atom_frac 0.499995 0.250000 0.642725 Ti
  atom_frac 0.374995 0.375000 0.642725 Ti
  atom_frac 0.298605 0.375000 0.642726 O
  atom_frac 0.374995 0.250000 0.657310 O
  atom_frac 0.499998 0.500000 0.365610 O
  atom_frac 0.326389 0.625000 0.380194 O
  atom_frac 0.374999 0.500000 0.380195 Ti
  atom_frac 0.499999 0.625000 0.380195 Ti
  atom_frac 0.423610 0.625000 0.380195 O
  atom_frac 0.250000 0.500000 0.394779 O
  atom_frac 0.374998 0.500000 0.403114 O
  atom_frac 0.451388 0.625000 0.417699 O
  atom_frac 0.499999 0.500000 0.417699 Ti
  atom_frac 0.374999 0.625000 0.417699 Ti
  atom_frac 0.298609 0.625000 0.417699 O
  atom_frac 0.375000 0.500000 0.432283 O
  atom_frac 0.499997 0.500000 0.440619 O
  atom_frac 0.326388 0.625000 0.455203 O
  atom_frac 0.374998 0.500000 0.455203 Ti
  atom_frac 0.499998 0.625000 0.455203 Ti
  atom_frac 0.423608 0.625000 0.455204 O
  atom_frac 0.499999 0.500000 0.469788 O
  atom_frac 0.374996 0.500000 0.478123 O
  atom_frac 0.451387 0.625000 0.492707 O
  atom_frac 0.499997 0.500000 0.492708 Ti
  atom_frac 0.374997 0.625000 0.492708 Ti
  atom_frac 0.298608 0.625000 0.492708 O
  atom_frac 0.374998 0.500000 0.507292 O
  atom_frac 0.499996 0.500000 0.515628 O
  atom_frac 0.326386 0.625000 0.530212 O
  atom_frac 0.374997 0.500000 0.530212 Ti
  atom_frac 0.499997 0.625000 0.530212 Ti
  atom_frac 0.423607 0.625000 0.530212 O
  atom_frac 0.499998 0.500000 0.544797 O
  atom_frac 0.374995 0.500000 0.553132 O
  atom_frac 0.451386 0.625000 0.567716 O
  atom_frac 0.499996 0.500000 0.567717 Ti
  atom_frac 0.374996 0.625000 0.567717 Ti
  atom_frac 0.298606 0.625000 0.567717 O
  atom_frac 0.374997 0.500000 0.582301 O
  atom_frac 0.499994 0.500000 0.590636 O
  atom_frac 0.326385 0.625000 0.605221 O
  atom_frac 0.374995 0.500000 0.605221 Ti
  atom_frac 0.499995 0.625000 0.605221 Ti
  atom_frac 0.423606 0.625000 0.605221 O
  atom_frac 0.499996 0.500000 0.619805 O
  atom_frac 0.374994 0.500000 0.628141 O
  atom_frac 0.451384 0.625000 0.642725 O
  atom_frac 0.499995 0.500000 0.642725 Ti
  atom_frac 0.374995 0.625000 0.642725 Ti
  atom_frac 0.298605 0.625000 0.642726 O
  atom_frac 0.374995 0.500000 0.657310 O
  atom_frac 0.499998 0.750000 0.365610 O
  atom_frac 0.326389 0.875000 0.380194 O
  atom_frac 0.374999 0.750000 0.380195 Ti
  atom_frac 0.499999 0.875000 0.380195 Ti
  atom_frac 0.423610 0.875000 0.380195 O
  atom_frac 0.250000 0.750000 0.394779 O
  atom_frac 0.374998 0.750000 0.403114 O
  atom_frac 0.451388 0.875000 0.417699 O
  atom_frac 0.499999 0.750000 0.417699 Ti
  atom_frac 0.374999 0.875000 0.417699 Ti
  atom_frac 0.298609 0.875000 0.417699 O
  atom_frac 0.375000 0.750000 0.432283 O
  atom_frac 0.499997 0.750000 0.440619 O
  atom_frac 0.326388 0.875000 0.455203 O
  atom_frac 0.374998 0.750000 0.455203 Ti
  atom_frac 0.499998 0.875000 0.455203 Ti
  atom_frac 0.423608 0.875000 0.455204 O
  atom_frac 0.499999 0.750000 0.469788 O
  atom_frac 0.374996 0.750000 0.478123 O
  atom_frac 0.451387 0.875000 0.492707 O
  atom_frac 0.499997 0.750000 0.492708 Ti
  atom_frac 0.374997 0.875000 0.492708 Ti
  atom_frac 0.298608 0.875000 0.492708 O
  atom_frac 0.374998 0.750000 0.507292 O
  atom_frac 0.499996 0.750000 0.515628 O1
  atom_frac 0.326386 0.875000 0.530212 O
  atom_frac 0.374997 0.750000 0.530212 Ti
  atom_frac 0.499997 0.875000 0.530212 Ti
  atom_frac 0.423607 0.875000 0.530212 O
  atom_frac 0.499998 0.750000 0.544797 O
  atom_frac 0.374995 0.750000 0.553132 O
  atom_frac 0.451386 0.875000 0.567716 O
  atom_frac 0.499996 0.750000 0.567717 Ti
  atom_frac 0.374996 0.875000 0.567717 Ti
  atom_frac 0.298606 0.875000 0.567717 O
  atom_frac 0.374997 0.750000 0.582301 O
  atom_frac 0.499994 0.750000 0.590636 O
  atom_frac 0.326385 0.875000 0.605221 O
  atom_frac 0.374995 0.750000 0.605221 Ti
  atom_frac 0.499995 0.875000 0.605221 Ti
  atom_frac 0.423606 0.875000 0.605221 O
  atom_frac 0.499996 0.750000 0.619805 O
  atom_frac 0.374994 0.750000 0.628141 O
  atom_frac 0.451384 0.875000 0.642725 O
  atom_frac 0.499995 0.750000 0.642725 Ti
  atom_frac 0.374995 0.875000 0.642725 Ti
  atom_frac 0.298605 0.875000 0.642726 O
  atom_frac 0.374995 0.750000 0.657310 O
  atom_frac 0.749998 0.000000 0.365610 O
  atom_frac 0.576389 0.125000 0.380194 O
  atom_frac 0.624999 0.000000 0.380195 Ti
  atom_frac 0.749999 0.125000 0.380195 Ti
  atom_frac 0.673610 0.125000 0.380195 O
  atom_frac 0.500000 0.000000 0.394779 O
  atom_frac 0.624998 0.000000 0.403114 O
  atom_frac 0.701388 0.125000 0.417699 O
  atom_frac 0.749999 0.000000 0.417699 Ti
  atom_frac 0.624999 0.125000 0.417699 Ti
  atom_frac 0.548609 0.125000 0.417699 O
  atom_frac 0.625000 0.000000 0.432283 O
  atom_frac 0.749997 0.000000 0.440619 O
  atom_frac 0.576388 0.125000 0.455203 O
  atom_frac 0.624998 0.000000 0.455203 Ti
  atom_frac 0.749998 0.125000 0.455203 Ti
  atom_frac 0.673608 0.125000 0.455204 O
  atom_frac 0.749999 0.000000 0.469788 O
  atom_frac 0.624996 0.000000 0.478123 O
  atom_frac 0.701387 0.125000 0.492707 O
  atom_frac 0.749997 0.000000 0.492708 Ti
  atom_frac 0.624997 0.125000 0.492708 Ti
  atom_frac 0.548608 0.125000 0.492708 O
  atom_frac 0.624998 0.000000 0.507292 O
  atom_frac 0.749996 0.000000 0.515628 O
  atom_frac 0.576386 0.125000 0.530212 O
  atom_frac 0.624997 0.000000 0.530212 Ti
  atom_frac 0.749997 0.125000 0.530212 Ti
  atom_frac 0.673607 0.125000 0.530212 O
  atom_frac 0.749998 0.000000 0.544797 O
  atom_frac 0.624995 0.000000 0.553132 O
  atom_frac 0.701386 0.125000 0.567716 O
  atom_frac 0.749996 0.000000 0.567717 Ti
  atom_frac 0.624996 0.125000 0.567717 Ti
  atom_frac 0.548606 0.125000 0.567717 O
  atom_frac 0.624997 0.000000 0.582301 O
  atom_frac 0.749994 0.000000 0.590636 O
  atom_frac 0.576385 0.125000 0.605221 O
  atom_frac 0.624995 0.000000 0.605221 Ti
  atom_frac 0.749995 0.125000 0.605221 Ti
  atom_frac 0.673606 0.125000 0.605221 O
  atom_frac 0.749996 0.000000 0.619805 O
  atom_frac 0.624994 0.000000 0.628141 O
  atom_frac 0.701384 0.125000 0.642725 O
  atom_frac 0.749995 0.000000 0.642725 Ti
  atom_frac 0.624995 0.125000 0.642725 Ti
  atom_frac 0.548605 0.125000 0.642726 O
  atom_frac 0.624995 0.000000 0.657310 O
  atom_frac 0.749998 0.250000 0.365610 O
  atom_frac 0.576389 0.375000 0.380194 O
  atom_frac 0.624999 0.250000 0.380195 Ti
  atom_frac 0.749999 0.375000 0.380195 Ti
  atom_frac 0.673610 0.375000 0.380195 O
  atom_frac 0.500000 0.250000 0.394779 O
  atom_frac 0.624998 0.250000 0.403114 O
  atom_frac 0.701388 0.375000 0.417699 O
  atom_frac 0.749999 0.250000 0.417699 Ti
  atom_frac 0.624999 0.375000 0.417699 Ti
  atom_frac 0.548609 0.375000 0.417699 O
  atom_frac 0.625000 0.250000 0.432283 O
  atom_frac 0.749997 0.250000 0.440619 O
  atom_frac 0.576388 0.375000 0.455203 O
  atom_frac 0.624998 0.250000 0.455203 Ti
  atom_frac 0.749998 0.375000 0.455203 Ti
  atom_frac 0.673608 0.375000 0.455204 O
  atom_frac 0.749999 0.250000 0.469788 O
  atom_frac 0.624996 0.250000 0.478123 O
  atom_frac 0.701387 0.375000 0.492707 O
  atom_frac 0.749997 0.250000 0.492708 Ti
  atom_frac 0.624997 0.375000 0.492708 Ti
  atom_frac 0.548608 0.375000 0.492708 O
  atom_frac 0.624998 0.250000 0.507292 O
  atom_frac 0.749996 0.250000 0.515628 O
  atom_frac 0.576386 0.375000 0.530212 O
  atom_frac 0.624997 0.250000 0.530212 Ti
  atom_frac 0.749997 0.375000 0.530212 Ti
  atom_frac 0.673607 0.375000 0.530212 O
  atom_frac 0.749998 0.250000 0.544797 O
  atom_frac 0.624995 0.250000 0.553132 O
  atom_frac 0.701386 0.375000 0.567716 O
  atom_frac 0.749996 0.250000 0.567717 Ti
  atom_frac 0.624996 0.375000 0.567717 Ti
  atom_frac 0.548606 0.375000 0.567717 O
  atom_frac 0.624997 0.250000 0.582301 O
  atom_frac 0.749994 0.250000 0.590636 O
  atom_frac 0.576385 0.375000 0.605221 O
  atom_frac 0.624995 0.250000 0.605221 Ti
  atom_frac 0.749995 0.375000 0.605221 Ti
  atom_frac 0.673606 0.375000 0.605221 O
  atom_frac 0.749996 0.250000 0.619805 O
  atom_frac 0.624994 0.250000 0.628141 O
  atom_frac 0.701384 0.375000 0.642725 O
  atom_frac 0.749995 0.250000 0.642725 Ti
  atom_frac 0.624995 0.375000 0.642725 Ti
  atom_frac 0.548605 0.375000 0.642726 O
  atom_frac 0.624995 0.250000 0.657310 O
  atom_frac 0.749998 0.500000 0.365610 O
  atom_frac 0.576389 0.625000 0.380194 O
  atom_frac 0.624999 0.500000 0.380195 Ti
  atom_frac 0.749999 0.625000 0.380195 Ti
  atom_frac 0.673610 0.625000 0.380195 O
  atom_frac 0.500000 0.500000 0.394779 O
  atom_frac 0.624998 0.500000 0.403114 O
  atom_frac 0.701388 0.625000 0.417699 O
  atom_frac 0.749999 0.500000 0.417699 Ti
  atom_frac 0.624999 0.625000 0.417699 Ti
  atom_frac 0.548609 0.625000 0.417699 O
  atom_frac 0.625000 0.500000 0.432283 O
  atom_frac 0.749997 0.500000 0.440619 O
  atom_frac 0.576388 0.625000 0.455203 O
  atom_frac 0.624998 0.500000 0.455203 Ti
  atom_frac 0.749998 0.625000 0.455203 Ti
  atom_frac 0.673608 0.625000 0.455204 O
  atom_frac 0.749999 0.500000 0.469788 O
  atom_frac 0.624996 0.500000 0.478123 O
  atom_frac 0.701387 0.625000 0.492707 O
  atom_frac 0.749997 0.500000 0.492708 Ti
  atom_frac 0.624997 0.625000 0.492708 Ti
  atom_frac 0.548608 0.625000 0.492708 O
  atom_frac 0.624998 0.500000 0.507292 O
  atom_frac 0.749996 0.500000 0.515628 O
  atom_frac 0.576386 0.625000 0.530212 O
  atom_frac 0.624997 0.500000 0.530212 Ti
  atom_frac 0.749997 0.625000 0.530212 Ti
  atom_frac 0.673607 0.625000 0.530212 O
  atom_frac 0.749998 0.500000 0.544797 O
  atom_frac 0.624995 0.500000 0.553132 O
  atom_frac 0.701386 0.625000 0.567716 O
  atom_frac 0.749996 0.500000 0.567717 Ti
  atom_frac 0.624996 0.625000 0.567717 Ti
  atom_frac 0.548606 0.625000 0.567717 O
  atom_frac 0.624997 0.500000 0.582301 O
  atom_frac 0.749994 0.500000 0.590636 O
  atom_frac 0.576385 0.625000 0.605221 O
  atom_frac 0.624995 0.500000 0.605221 Ti
  atom_frac 0.749995 0.625000 0.605221 Ti
  atom_frac 0.673606 0.625000 0.605221 O
  atom_frac 0.749996 0.500000 0.619805 O
  atom_frac 0.624994 0.500000 0.628141 O
  atom_frac 0.701384 0.625000 0.642725 O
  atom_frac 0.749995 0.500000 0.642725 Ti
  atom_frac 0.624995 0.625000 0.642725 Ti
  atom_frac 0.548605 0.625000 0.642726 O
  atom_frac 0.624995 0.500000 0.657310 O
  atom_frac 0.749998 0.750000 0.365610 O
  atom_frac 0.576389 0.875000 0.380194 O
  atom_frac 0.624999 0.750000 0.380195 Ti
  atom_frac 0.749999 0.875000 0.380195 Ti
  atom_frac 0.673610 0.875000 0.380195 O
  atom_frac 0.500000 0.750000 0.394779 O
  atom_frac 0.624998 0.750000 0.403114 O
  atom_frac 0.701388 0.875000 0.417699 O
  atom_frac 0.749999 0.750000 0.417699 Ti
  atom_frac 0.624999 0.875000 0.417699 Ti
  atom_frac 0.548609 0.875000 0.417699 O
  atom_frac 0.625000 0.750000 0.432283 O
  atom_frac 0.749997 0.750000 0.440619 O
  atom_frac 0.576388 0.875000 0.455203 O
  atom_frac 0.624998 0.750000 0.455203 Ti
  atom_frac 0.749998 0.875000 0.455203 Ti
  atom_frac 0.673608 0.875000 0.455204 O
  atom_frac 0.749999 0.750000 0.469788 O
  atom_frac 0.624996 0.750000 0.478123 O
  atom_frac 0.701387 0.875000 0.492707 O
  atom_frac 0.749997 0.750000 0.492708 Ti
  atom_frac 0.624997 0.875000 0.492708 Ti
  atom_frac 0.548608 0.875000 0.492708 O
  atom_frac 0.624998 0.750000 0.507292 O
  atom_frac 0.749996 0.750000 0.515628 O
  atom_frac 0.576386 0.875000 0.530212 O
  atom_frac 0.624997 0.750000 0.530212 Ti
  atom_frac 0.749997 0.875000 0.530212 Ti
  atom_frac 0.673607 0.875000 0.530212 O
  atom_frac 0.749998 0.750000 0.544797 O
  atom_frac 0.624995 0.750000 0.553132 O
  atom_frac 0.701386 0.875000 0.567716 O
  atom_frac 0.749996 0.750000 0.567717 Ti
  atom_frac 0.624996 0.875000 0.567717 Ti
  atom_frac 0.548606 0.875000 0.567717 O
  atom_frac 0.624997 0.750000 0.582301 O
  atom_frac 0.749994 0.750000 0.590636 O
  atom_frac 0.576385 0.875000 0.605221 O
  atom_frac 0.624995 0.750000 0.605221 Ti
  atom_frac 0.749995 0.875000 0.605221 Ti
  atom_frac 0.673606 0.875000 0.605221 O
  atom_frac 0.749996 0.750000 0.619805 O
  atom_frac 0.624994 0.750000 0.628141 O
  atom_frac 0.701384 0.875000 0.642725 O
  atom_frac 0.749995 0.750000 0.642725 Ti
  atom_frac 0.624995 0.875000 0.642725 Ti
  atom_frac 0.548605 0.875000 0.642726 O
  atom_frac 0.624995 0.750000 0.657310 O
  atom_frac 0.999998 0.000000 0.365610 O
  atom_frac 0.826389 0.125000 0.380194 O
  atom_frac 0.874999 0.000000 0.380195 Ti
  atom_frac 0.999999 0.125000 0.380195 Ti
  atom_frac 0.923610 0.125000 0.380195 O
  atom_frac 0.750000 0.000000 0.394779 O
  atom_frac 0.874998 0.000000 0.403114 O
  atom_frac 0.951388 0.125000 0.417699 O
  atom_frac 0.999999 0.000000 0.417699 Ti
  atom_frac 0.874999 0.125000 0.417699 Ti
  atom_frac 0.798609 0.125000 0.417699 O
  atom_frac 0.875000 0.000000 0.432283 O
  atom_frac 0.999997 0.000000 0.440619 O
  atom_frac 0.826388 0.125000 0.455203 O
  atom_frac 0.874998 0.000000 0.455203 Ti
  atom_frac 0.999998 0.125000 0.455203 Ti
  atom_frac 0.923608 0.125000 0.455204 O
  atom_frac 0.999999 0.000000 0.469788 O
  atom_frac 0.874996 0.000000 0.478123 O
  atom_frac 0.951387 0.125000 0.492707 O
  atom_frac 0.999997 0.000000 0.492708 Ti
  atom_frac 0.874997 0.125000 0.492708 Ti
  atom_frac 0.798608 0.125000 0.492708 O
  atom_frac 0.874998 0.000000 0.507292 O
  atom_frac 0.999996 0.000000 0.515628 O
  atom_frac 0.826386 0.125000 0.530212 O
  atom_frac 0.874997 0.000000 0.530212 Ti
  atom_frac 0.999997 0.125000 0.530212 Ti
  atom_frac 0.923607 0.125000 0.530212 O
  atom_frac 0.999998 0.000000 0.544797 O
  atom_frac 0.874995 0.000000 0.553132 O
  atom_frac 0.951386 0.125000 0.567716 O
  atom_frac 0.999996 0.000000 0.567717 Ti
  atom_frac 0.874996 0.125000 0.567717 Ti
  atom_frac 0.798606 0.125000 0.567717 O
  atom_frac 0.874997 0.000000 0.582301 O
  atom_frac 0.999994 0.000000 0.590636 O
  atom_frac 0.826385 0.125000 0.605221 O
  atom_frac 0.874995 0.000000 0.605221 Ti
  atom_frac 0.999995 0.125000 0.605221 Ti
  atom_frac 0.923606 0.125000 0.605221 O
  atom_frac 0.999996 0.000000 0.619805 O
  atom_frac 0.874994 0.000000 0.628141 O
  atom_frac 0.951384 0.125000 0.642725 O
  atom_frac 0.999995 0.000000 0.642725 Ti
  atom_frac 0.874995 0.125000 0.642725 Ti
  atom_frac 0.798605 0.125000 0.642726 O
  atom_frac 0.874995 0.000000 0.657310 O
  atom_frac 0.999998 0.250000 0.365610 O
  atom_frac 0.826389 0.375000 0.380194 O
  atom_frac 0.874999 0.250000 0.380195 Ti
  atom_frac 0.999999 0.375000 0.380195 Ti
  atom_frac 0.923610 0.375000 0.380195 O
  atom_frac 0.750000 0.250000 0.394779 O
  atom_frac 0.874998 0.250000 0.403114 O
  atom_frac 0.951388 0.375000 0.417699 O
  atom_frac 0.999999 0.250000 0.417699 Ti
  atom_frac 0.874999 0.375000 0.417699 Ti
  atom_frac 0.798609 0.375000 0.417699 O
  atom_frac 0.875000 0.250000 0.432283 O
  atom_frac 0.999997 0.250000 0.440619 O
  atom_frac 0.826388 0.375000 0.455203 O
  atom_frac 0.874998 0.250000 0.455203 Ti
  atom_frac 0.999998 0.375000 0.455203 Ti
  atom_frac 0.923608 0.375000 0.455204 O
  atom_frac 0.999999 0.250000 0.469788 O
  atom_frac 0.874996 0.250000 0.478123 O
  atom_frac 0.951387 0.375000 0.492707 O
  atom_frac 0.999997 0.250000 0.492708 Ti
  atom_frac 0.874997 0.375000 0.492708 Ti
  atom_frac 0.798608 0.375000 0.492708 O
  atom_frac 0.874998 0.250000 0.507292 O
  atom_frac 0.999996 0.250000 0.515628 O
  atom_frac 0.826386 0.375000 0.530212 O
  atom_frac 0.874997 0.250000 0.530212 Ti
  atom_frac 0.999997 0.375000 0.530212 Ti
  atom_frac 0.923607 0.375000 0.530212 O
  atom_frac 0.999998 0.250000 0.544797 O
  atom_frac 0.874995 0.250000 0.553132 O
  atom_frac 0.951386 0.375000 0.567716 O
  atom_frac 0.999996 0.250000 0.567717 Ti
  atom_frac 0.874996 0.375000 0.567717 Ti
  atom_frac 0.798606 0.375000 0.567717 O
  atom_frac 0.874997 0.250000 0.582301 O
  atom_frac 0.999994 0.250000 0.590636 O
  atom_frac 0.826385 0.375000 0.605221 O
  atom_frac 0.874995 0.250000 0.605221 Ti
  atom_frac 0.999995 0.375000 0.605221 Ti
  atom_frac 0.923606 0.375000 0.605221 O
  atom_frac 0.999996 0.250000 0.619805 O
  atom_frac 0.874994 0.250000 0.628141 O
  atom_frac 0.951384 0.375000 0.642725 O
  atom_frac 0.999995 0.250000 0.642725 Ti
  atom_frac 0.874995 0.375000 0.642725 Ti
  atom_frac 0.798605 0.375000 0.642726 O
  atom_frac 0.874995 0.250000 0.657310 O
  atom_frac 0.999998 0.500000 0.365610 O
  atom_frac 0.826389 0.625000 0.380194 O
  atom_frac 0.874999 0.500000 0.380195 Ti
  atom_frac 0.999999 0.625000 0.380195 Ti
  atom_frac 0.923610 0.625000 0.380195 O
  atom_frac 0.750000 0.500000 0.394779 O
  atom_frac 0.874998 0.500000 0.403114 O
  atom_frac 0.951388 0.625000 0.417699 O
  atom_frac 0.999999 0.500000 0.417699 Ti
  atom_frac 0.874999 0.625000 0.417699 Ti
  atom_frac 0.798609 0.625000 0.417699 O
  atom_frac 0.875000 0.500000 0.432283 O
  atom_frac 0.999997 0.500000 0.440619 O
  atom_frac 0.826388 0.625000 0.455203 O
  atom_frac 0.874998 0.500000 0.455203 Ti
  atom_frac 0.999998 0.625000 0.455203 Ti
  atom_frac 0.923608 0.625000 0.455204 O
  atom_frac 0.999999 0.500000 0.469788 O
  atom_frac 0.874996 0.500000 0.478123 O
  atom_frac 0.951387 0.625000 0.492707 O
  atom_frac 0.999997 0.500000 0.492708 Ti
  atom_frac 0.874997 0.625000 0.492708 Ti
  atom_frac 0.798608 0.625000 0.492708 O
  atom_frac 0.874998 0.500000 0.507292 O
  atom_frac 0.999996 0.500000 0.515628 O
  atom_frac 0.826386 0.625000 0.530212 O
  atom_frac 0.874997 0.500000 0.530212 Ti
  atom_frac 0.999997 0.625000 0.530212 Ti
  atom_frac 0.923607 0.625000 0.530212 O
  atom_frac 0.999998 0.500000 0.544797 O
  atom_frac 0.874995 0.500000 0.553132 O
  atom_frac 0.951386 0.625000 0.567716 O
  atom_frac 0.999996 0.500000 0.567717 Ti
  atom_frac 0.874996 0.625000 0.567717 Ti
  atom_frac 0.798606 0.625000 0.567717 O
  atom_frac 0.874997 0.500000 0.582301 O
  atom_frac 0.999994 0.500000 0.590636 O
  atom_frac 0.826385 0.625000 0.605221 O
  atom_frac 0.874995 0.500000 0.605221 Ti
  atom_frac 0.999995 0.625000 0.605221 Ti
  atom_frac 0.923606 0.625000 0.605221 O
  atom_frac 0.999996 0.500000 0.619805 O
  atom_frac 0.874994 0.500000 0.628141 O
  atom_frac 0.951384 0.625000 0.642725 O
  atom_frac 0.999995 0.500000 0.642725 Ti
  atom_frac 0.874995 0.625000 0.642725 Ti
  atom_frac 0.798605 0.625000 0.642726 O
  atom_frac 0.874995 0.500000 0.657310 O
  atom_frac 0.999998 0.750000 0.365610 O
  atom_frac 0.826389 0.875000 0.380194 O
  atom_frac 0.874999 0.750000 0.380195 Ti
  atom_frac 0.999999 0.875000 0.380195 Ti
  atom_frac 0.923610 0.875000 0.380195 O
  atom_frac 0.750000 0.750000 0.394779 O
  atom_frac 0.874998 0.750000 0.403114 O
  atom_frac 0.951388 0.875000 0.417699 O
  atom_frac 0.999999 0.750000 0.417699 Ti
  atom_frac 0.874999 0.875000 0.417699 Ti
  atom_frac 0.798609 0.875000 0.417699 O
  atom_frac 0.875000 0.750000 0.432283 O
  atom_frac 0.999997 0.750000 0.440619 O
  atom_frac 0.826388 0.875000 0.455203 O
  atom_frac 0.874998 0.750000 0.455203 Ti
  atom_frac 0.999998 0.875000 0.455203 Ti
  atom_frac 0.923608 0.875000 0.455204 O
  atom_frac 0.999999 0.750000 0.469788 O
  atom_frac 0.874996 0.750000 0.478123 O
  atom_frac 0.951387 0.875000 0.492707 O
  atom_frac 0.999997 0.750000 0.492708 Ti
  atom_frac 0.874997 0.875000 0.492708 Ti
  atom_frac 0.798608 0.875000 0.492708 O
  atom_frac 0.874998 0.750000 0.507292 O
  atom_frac 0.999996 0.750000 0.515628 O
  atom_frac 0.826386 0.875000 0.530212 O
  atom_frac 0.874997 0.750000 0.530212 Ti
  atom_frac 0.999997 0.875000 0.530212 Ti
  atom_frac 0.923607 0.875000 0.530212 O
  atom_frac 0.999998 0.750000 0.544797 O
  atom_frac 0.874995 0.750000 0.553132 O
  atom_frac 0.951386 0.875000 0.567716 O
  atom_frac 0.999996 0.750000 0.567717 Ti
  atom_frac 0.874996 0.875000 0.567717 Ti
  atom_frac 0.798606 0.875000 0.567717 O
  atom_frac 0.874997 0.750000 0.582301 O
  atom_frac 0.999994 0.750000 0.590636 O
  atom_frac 0.826385 0.875000 0.605221 O
  atom_frac 0.874995 0.750000 0.605221 Ti
  atom_frac 0.999995 0.875000 0.605221 Ti
  atom_frac 0.923606 0.875000 0.605221 O
  atom_frac 0.999996 0.750000 0.619805 O
  atom_frac 0.874994 0.750000 0.628141 O
  atom_frac 0.951384 0.875000 0.642725 O
  atom_frac 0.999995 0.750000 0.642725 Ti
  atom_frac 0.874995 0.875000 0.642725 Ti
  atom_frac 0.798605 0.875000 0.642726 O
  atom_frac 0.874995 0.750000 0.657310 O
  
  -----------------------------------------------------------------------
  Completed first pass over input file geometry.in .
  -----------------------------------------------------------------------
  

  Basic array size parameters:
  | Number of species                 :        3
  | Number of atoms                   :      768
  | Number of lattice vectors         :        3
  | Max. basis fn. angular momentum   :        4
  | Max. atomic/ionic basis occupied n:        4
  | Max. number of basis fn. types    :        3
  | Max. radial fns per species/type  :       18
  | Max. logarithmic grid size        :     1383
  | Max. radial integration grid size :       73
  | Max. angular integration grid size:      434
  | Max. angular grid division number :        8
  | Radial grid for Hartree potential :     1383
  | Number of spin channels           :        2

------------------------------------------------------------
          Reading file control.in.
------------------------------------------------------------
  XC: Using PBE gradient-corrected functionals.
  Scalar relativistic treatment of kinetic energy: ZORA.
  Threshold value for ZORA:   0.100000E-11
  Kohn-Sham eigenvalues and eigenfunctions calculated by LAPACK via ELSI.
  Found k-point grid:         1         2         1
  Spin treatment: Spin density functional theory - collinear spins.
  Initial spin moment per atom:   0.0000
  Charged system requested: Charge =   0.100000E+01.
  Occupation forced using projector   1      512   0.00000000
  Reading restart information from file restart000
  Mulliken charge analysis will be performed and summarised to the main output.
  Full Mulliken charge analysis will be written to file 'Mulliken.out'.
 
  Reading configuration options for species Ti                  .
  | Found nuclear charge :  22.0000
  | Found atomic mass :    47.8670000000000      amu
  | Found l_max for Hartree potential  :   4
  | Found cutoff potl. onset [A], width [A], scale factor :    3.50000    1.50000    1.00000
  | Threshold for basis-dependent cutoff potential is   0.100000E-03
  | Found data for basic radial integration grid :    48 points, outermost radius =    5.000 A
  | Found multiplier for basic radial grid :   1
  | Found angular grid specification: user-specified.
  | Specified grid contains     5 separate shells.
  | Check grid settings after all constraints further below.
  | Found free-atom valence shell :  4 s   2.000
  | Found free-atom valence shell :  3 p   6.000
  | Found free-atom valence shell :  3 d   2.000
  | Found free-ion valence shell :  4 s   1.000
  | Found free-ion valence shell :  3 p   6.000
  | Found free-ion valence shell :  3 d   1.000
  | Found hydrogenic basis function :  4 f   8.000
  | Found hydrogenic basis function :  3 d   2.700
  | Found ionic basis function :  4 p , default cutoff radius.
  | Found ionic basis function :  4 s , default cutoff radius.
 | Encountered keyword species, ending the description of species Ti                  .
  Species Ti                  : Missing cutoff potential type.
  Defaulting to exp(1/x)/(1-x)^2 type cutoff potential.
  Species Ti: No 'logarithmic' tag. Using default grid for free atom:
  | Default logarithmic grid data [bohr] : 0.1000E-03 0.1000E+03 0.1012E+01
  | Will include ionic basis functions of  2.0-fold positive Ti                   ion.
  Species Ti: On-site basis accuracy parameter (for Gram-Schmidt orthonormalisation) not specified.
  Using default value basis_acc =  0.1000000E-03.
  Species Ti                  : Using default innermost maximum threshold i_radial=  2 for radial functions.
  Species Ti                  : Default cutoff onset for free atom density etc. : 0.35000000E+01 AA.
  Species Ti                  : Basic radial grid will be enhanced according to radial_multiplier =   1, to contain    48 grid points.
 
  Reading configuration options for species O                   .
  | Found nuclear charge :   8.0000
  | Found atomic mass :    15.9994000000000      amu
  | Found l_max for Hartree potential  :   4
  | Found cutoff potl. onset [A], width [A], scale factor :    3.50000    1.50000    1.00000
  | Threshold for basis-dependent cutoff potential is   0.100000E-03
  | Found data for basic radial integration grid :    36 points, outermost radius =    5.000 A
  | Found multiplier for basic radial grid :   1
  | Found angular grid specification: user-specified.
  | Specified grid contains     5 separate shells.
  | Check grid settings after all constraints further below.
  | Found free-atom valence shell :  2 s   2.000
  | Found free-atom valence shell :  2 p   4.000
  | Found free-ion valence shell :  2 s   1.000
  | Found free-ion valence shell :  2 p   3.000
  | Found hydrogenic basis function :  2 p   1.800
  | Found hydrogenic basis function :  3 d   7.600
  | Found hydrogenic basis function :  3 s   6.400
 | Encountered keyword species, ending the description of species O                   .
  Species O                   : Missing cutoff potential type.
  Defaulting to exp(1/x)/(1-x)^2 type cutoff potential.
  Species O : No 'logarithmic' tag. Using default grid for free atom:
  | Default logarithmic grid data [bohr] : 0.1000E-03 0.1000E+03 0.1012E+01
  Species O : On-site basis accuracy parameter (for Gram-Schmidt orthonormalisation) not specified.
  Using default value basis_acc =  0.1000000E-03.
  Species O                   : Using default innermost maximum threshold i_radial=  2 for radial functions.
  Species O                   : Default cutoff onset for free atom density etc. : 0.35000000E+01 AA.
  Species O                   : Basic radial grid will be enhanced according to radial_multiplier =   1, to contain    36 grid points.
 
  Reading configuration options for species O1                  .
  | Found nuclear charge :   8.0000
  | Found atomic mass :    15.9994000000000      amu
  | Found l_max for Hartree potential  :   6
  | Found cutoff potl. onset [A], width [A], scale factor :    4.00000    2.00000    1.00000
  | Threshold for basis-dependent cutoff potential is   0.100000E-03
  | Found data for basic radial integration grid :    36 points, outermost radius =    7.000 A
  | Found multiplier for basic radial grid :   2
  | Found angular grid specification: user-specified.
  | Specified grid contains     6 separate shells.
  | Check grid settings after all constraints further below.
  | Found free-atom valence shell :  2 s   2.000
  | Found free-atom valence shell :  2 p   4.000
  | Found free-ion valence shell :  2 s   1.000
  | Found free-ion valence shell :  2 p   3.000
  | Found hydrogenic basis function :  2 p   1.800
  | Found hydrogenic basis function :  3 d   7.600
  | Found hydrogenic basis function :  3 s   6.400
  | Found hydrogenic basis function :  4 f  11.600
  | Found hydrogenic basis function :  3 p   6.200
  | Found hydrogenic basis function :  3 d   5.600
  | Found hydrogenic basis function :  5 g  17.600
  | Found hydrogenic basis function :  1 s   0.750
  | Found ionic basis function :  2 p , default cutoff radius.
  | Found hydrogenic basis function :  4 f  10.800
  | Found hydrogenic basis function :  4 d   4.700
  | Found hydrogenic basis function :  2 s   6.800
  | Found hydrogenic basis function :  1 s  12.000
  | Found hydrogenic basis function :  1 s  10.000
  | Found hydrogenic basis function :  1 s   6.000
  | Found hydrogenic basis function :  2 s  10.000
  | Found hydrogenic basis function :  2 p   8.000
  | Found hydrogenic basis function :  2 p   6.000
  | Found hydrogenic basis function :  3 d   8.000
  Species O1                  : Missing cutoff potential type.
  Defaulting to exp(1/x)/(1-x)^2 type cutoff potential.
  Species O1: No 'logarithmic' tag. Using default grid for free atom:
  | Default logarithmic grid data [bohr] : 0.1000E-03 0.1000E+03 0.1012E+01
  | Will include ionic basis functions of  2.0-fold positive O1                   ion.
  Species O1: On-site basis accuracy parameter (for Gram-Schmidt orthonormalisation) not specified.
  Using default value basis_acc =  0.1000000E-03.
  Species O1                  : Using default innermost maximum threshold i_radial=  2 for radial functions.
  Species O1                  : Default cutoff onset for free atom density etc. : 0.40000000E+01 AA.
  Species O1                  : Basic radial grid will be enhanced according to radial_multiplier =   2, to contain    73 grid points.
 
  Finished reading input file 'control.in'.
 
------------------------------------------------------------


------------------------------------------------------------
          Reading geometry description geometry.in.
------------------------------------------------------------
  | The smallest distance between any two atoms is         1.95946827 AA.
  | The first atom of this pair is atom number                    710 .
  | The second atom of this pair is atom number                   759 .
  | Wigner-Seitz cell of the first atom image           0     0     0 .
  | (The Wigner-Seitz cell of the second atom is 0 0 0  by definition.)

  Symmetry information by spglib:
  | Precision set to  0.1E-04
  | Number of Operations  : 2
  | Space group           : 6
  | International         : Pm
  | Schoenflies           : Cs^1
  Input structure read successfully.
  The structure contains      768 atoms,  and a total of       9727.000 electrons.

  Input geometry:
  | Unit cell:
  |       26.26450600        0.00000000        0.00000000
  |        0.00000000       11.89153100        0.00000000
  |        0.00000000        0.00000000       87.54264900
  | Atomic structure:
  |       Atom                x [A]            y [A]            z [A]
  |    1: Species O             6.56607397        0.00000000       32.00646790
  |    2: Species O             2.00631935        1.48644138       33.28318989
  |    3: Species Ti            3.28303699        0.00000000       33.28327744
  |    4: Species Ti            6.56610024        1.48644138       33.28327744
  |    5: Species O             4.55978089        1.48644138       33.28327744
  |    6: Species O             0.00000000        0.00000000       34.55999943
  |    7: Species O             3.28301072        0.00000000       35.28966741
  |    8: Species O             5.28935633        1.48644138       36.56647694
  |    9: Species Ti            6.56610024        0.00000000       36.56647694
  |   10: Species Ti            3.28303699        1.48644138       36.56647694
  |   11: Species O             1.27669137        1.48644138       36.56647694
  |   12: Species O             3.28306325        0.00000000       37.84319894
  |   13: Species O             6.56604771        0.00000000       38.57295446
  |   14: Species O             2.00629308        1.48644138       39.84967645
  |   15: Species Ti            3.28301072        0.00000000       39.84967645
  |   16: Species Ti            6.56607397        1.48644138       39.84967645
  |   17: Species O             4.55972836        1.48644138       39.84976400
  |   18: Species O             6.56610024        0.00000000       41.12648599
  |   19: Species O             3.28295819        0.00000000       41.85615397
  |   20: Species O             5.28933007        1.48644138       43.13287596
  |   21: Species Ti            6.56604771        0.00000000       43.13296350
  |   22: Species Ti            3.28298446        1.48644138       43.13296350
  |   23: Species O             1.27666511        1.48644138       43.13296350
  |   24: Species O             3.28301072        0.00000000       44.40968550
  |   25: Species O             6.56602144        0.00000000       45.13944102
  |   26: Species O             2.00624056        1.48644138       46.41616301
  |   27: Species Ti            3.28298446        0.00000000       46.41616301
  |   28: Species Ti            6.56604771        1.48644138       46.41616301
  |   29: Species O             4.55970209        1.48644138       46.41616301
  |   30: Species O             6.56607397        0.00000000       47.69297255
  |   31: Species O             3.28293193        0.00000000       48.42264053
  |   32: Species O             5.28930381        1.48644138       49.69936252
  |   33: Species Ti            6.56602144        0.00000000       49.69945006
  |   34: Species Ti            3.28295819        1.48644138       49.69945006
  |   35: Species O             1.27661258        1.48644138       49.69945006
  |   36: Species O             3.28298446        0.00000000       50.97617206
  |   37: Species O             6.56596891        0.00000000       51.70584003
  |   38: Species O             2.00621429        1.48644138       52.98264957
  |   39: Species Ti            3.28293193        0.00000000       52.98264957
  |   40: Species Ti            6.56599518        1.48644138       52.98264957
  |   41: Species O             4.55967583        1.48644138       52.98264957
  |   42: Species O             6.56602144        0.00000000       54.25937156
  |   43: Species O             3.28290566        0.00000000       54.98912709
  |   44: Species O             5.28925128        1.48644138       56.26584908
  |   45: Species Ti            6.56599518        0.00000000       56.26584908
  |   46: Species Ti            3.28293193        1.48644138       56.26584908
  |   47: Species O             1.27658631        1.48644138       56.26593662
  |   48: Species O             3.28293193        0.00000000       57.54265861
  |   49: Species O             6.56607397        2.97288275       32.00646790
  |   50: Species O             2.00631935        4.45932413       33.28318989
  |   51: Species Ti            3.28303699        2.97288275       33.28327744
  |   52: Species Ti            6.56610024        4.45932413       33.28327744
  |   53: Species O             4.55978089        4.45932413       33.28327744
  |   54: Species O             0.00000000        2.97288275       34.55999943
  |   55: Species O             3.28301072        2.97288275       35.28966741
  |   56: Species O             5.28935633        4.45932413       36.56647694
  |   57: Species Ti            6.56610024        2.97288275       36.56647694
  |   58: Species Ti            3.28303699        4.45932413       36.56647694
  |   59: Species O             1.27669137        4.45932413       36.56647694
  |   60: Species O             3.28306325        2.97288275       37.84319894
  |   61: Species O             6.56604771        2.97288275       38.57295446
  |   62: Species O             2.00629308        4.45932413       39.84967645
  |   63: Species Ti            3.28301072        2.97288275       39.84967645
  |   64: Species Ti            6.56607397        4.45932413       39.84967645
  |   65: Species O             4.55972836        4.45932413       39.84976400
  |   66: Species O             6.56610024        2.97288275       41.12648599
  |   67: Species O             3.28295819        2.97288275       41.85615397
  |   68: Species O             5.28933007        4.45932413       43.13287596
  |   69: Species Ti            6.56604771        2.97288275       43.13296350
  |   70: Species Ti            3.28298446        4.45932413       43.13296350
  |   71: Species O             1.27666511        4.45932413       43.13296350
  |   72: Species O             3.28301072        2.97288275       44.40968550
  |   73: Species O             6.56602144        2.97288275       45.13944102
  |   74: Species O             2.00624056        4.45932413       46.41616301
  |   75: Species Ti            3.28298446        2.97288275       46.41616301
  |   76: Species Ti            6.56604771        4.45932413       46.41616301
  |   77: Species O             4.55970209        4.45932413       46.41616301
  |   78: Species O             6.56607397        2.97288275       47.69297255
  |   79: Species O             3.28293193        2.97288275       48.42264053
  |   80: Species O             5.28930381        4.45932413       49.69936252
  |   81: Species Ti            6.56602144        2.97288275       49.69945006
  |   82: Species Ti            3.28295819        4.45932413       49.69945006
  |   83: Species O             1.27661258        4.45932413       49.69945006
  |   84: Species O             3.28298446        2.97288275       50.97617206
  |   85: Species O             6.56596891        2.97288275       51.70584003
  |   86: Species O             2.00621429        4.45932413       52.98264957
  |   87: Species Ti            3.28293193        2.97288275       52.98264957
  |   88: Species Ti            6.56599518        4.45932413       52.98264957
  |   89: Species O             4.55967583        4.45932413       52.98264957
  |   90: Species O             6.56602144        2.97288275       54.25937156
  |   91: Species O             3.28290566        2.97288275       54.98912709
  |   92: Species O             5.28925128        4.45932413       56.26584908
  |   93: Species Ti            6.56599518        2.97288275       56.26584908
  |   94: Species Ti            3.28293193        4.45932413       56.26584908
  |   95: Species O             1.27658631        4.45932413       56.26593662
  |   96: Species O             3.28293193        2.97288275       57.54265861
  |   97: Species O             6.56607397        5.94576550       32.00646790
  |   98: Species O             2.00631935        7.43220687       33.28318989
  |   99: Species Ti            3.28303699        5.94576550       33.28327744
  |  100: Species Ti            6.56610024        7.43220687       33.28327744
  |  101: Species O             4.55978089        7.43220687       33.28327744
  |  102: Species O             0.00000000        5.94576550       34.55999943
  |  103: Species O             3.28301072        5.94576550       35.28966741
  |  104: Species O             5.28935633        7.43220687       36.56647694
  |  105: Species Ti            6.56610024        5.94576550       36.56647694
  |  106: Species Ti            3.28303699        7.43220687       36.56647694
  |  107: Species O             1.27669137        7.43220687       36.56647694
  |  108: Species O             3.28306325        5.94576550       37.84319894
  |  109: Species O             6.56604771        5.94576550       38.57295446
  |  110: Species O             2.00629308        7.43220687       39.84967645
  |  111: Species Ti            3.28301072        5.94576550       39.84967645
  |  112: Species Ti            6.56607397        7.43220687       39.84967645
  |  113: Species O             4.55972836        7.43220687       39.84976400
  |  114: Species O             6.56610024        5.94576550       41.12648599
  |  115: Species O             3.28295819        5.94576550       41.85615397
  |  116: Species O             5.28933007        7.43220687       43.13287596
  |  117: Species Ti            6.56604771        5.94576550       43.13296350
  |  118: Species Ti            3.28298446        7.43220687       43.13296350
  |  119: Species O             1.27666511        7.43220687       43.13296350
  |  120: Species O             3.28301072        5.94576550       44.40968550
  |  121: Species O             6.56602144        5.94576550       45.13944102
  |  122: Species O             2.00624056        7.43220687       46.41616301
  |  123: Species Ti            3.28298446        5.94576550       46.41616301
  |  124: Species Ti            6.56604771        7.43220687       46.41616301
  |  125: Species O             4.55970209        7.43220687       46.41616301
  |  126: Species O             6.56607397        5.94576550       47.69297255
  |  127: Species O             3.28293193        5.94576550       48.42264053
  |  128: Species O             5.28930381        7.43220687       49.69936252
  |  129: Species Ti            6.56602144        5.94576550       49.69945006
  |  130: Species Ti            3.28295819        7.43220687       49.69945006
  |  131: Species O             1.27661258        7.43220687       49.69945006
  |  132: Species O             3.28298446        5.94576550       50.97617206
  |  133: Species O             6.56596891        5.94576550       51.70584003
  |  134: Species O             2.00621429        7.43220687       52.98264957
  |  135: Species Ti            3.28293193        5.94576550       52.98264957
  |  136: Species Ti            6.56599518        7.43220687       52.98264957
  |  137: Species O             4.55967583        7.43220687       52.98264957
  |  138: Species O             6.56602144        5.94576550       54.25937156
  |  139: Species O             3.28290566        5.94576550       54.98912709
  |  140: Species O             5.28925128        7.43220687       56.26584908
  |  141: Species Ti            6.56599518        5.94576550       56.26584908
  |  142: Species Ti            3.28293193        7.43220687       56.26584908
  |  143: Species O             1.27658631        7.43220687       56.26593662
  |  144: Species O             3.28293193        5.94576550       57.54265861
  |  145: Species O             6.56607397        8.91864825       32.00646790
  |  146: Species O             2.00631935       10.40508963       33.28318989
  |  147: Species Ti            3.28303699        8.91864825       33.28327744
  |  148: Species Ti            6.56610024       10.40508963       33.28327744
  |  149: Species O             4.55978089       10.40508963       33.28327744
  |  150: Species O             0.00000000        8.91864825       34.55999943
  |  151: Species O             3.28301072        8.91864825       35.28966741
  |  152: Species O             5.28935633       10.40508963       36.56647694
  |  153: Species Ti            6.56610024        8.91864825       36.56647694
  |  154: Species Ti            3.28303699       10.40508963       36.56647694
  |  155: Species O             1.27669137       10.40508963       36.56647694
  |  156: Species O             3.28306325        8.91864825       37.84319894
  |  157: Species O             6.56604771        8.91864825       38.57295446
  |  158: Species O             2.00629308       10.40508963       39.84967645
  |  159: Species Ti            3.28301072        8.91864825       39.84967645
  |  160: Species Ti            6.56607397       10.40508963       39.84967645
  |  161: Species O             4.55972836       10.40508963       39.84976400
  |  162: Species O             6.56610024        8.91864825       41.12648599
  |  163: Species O             3.28295819        8.91864825       41.85615397
  |  164: Species O             5.28933007       10.40508963       43.13287596
  |  165: Species Ti            6.56604771        8.91864825       43.13296350
  |  166: Species Ti            3.28298446       10.40508963       43.13296350
  |  167: Species O             1.27666511       10.40508963       43.13296350
  |  168: Species O             3.28301072        8.91864825       44.40968550
  |  169: Species O             6.56602144        8.91864825       45.13944102
  |  170: Species O             2.00624056       10.40508963       46.41616301
  |  171: Species Ti            3.28298446        8.91864825       46.41616301
  |  172: Species Ti            6.56604771       10.40508963       46.41616301
  |  173: Species O             4.55970209       10.40508963       46.41616301
  |  174: Species O             6.56607397        8.91864825       47.69297255
  |  175: Species O             3.28293193        8.91864825       48.42264053
  |  176: Species O             5.28930381       10.40508963       49.69936252
  |  177: Species Ti            6.56602144        8.91864825       49.69945006
  |  178: Species Ti            3.28295819       10.40508963       49.69945006
  |  179: Species O             1.27661258       10.40508963       49.69945006
  |  180: Species O             3.28298446        8.91864825       50.97617206
  |  181: Species O             6.56596891        8.91864825       51.70584003
  |  182: Species O             2.00621429       10.40508963       52.98264957
  |  183: Species Ti            3.28293193        8.91864825       52.98264957
  |  184: Species Ti            6.56599518       10.40508963       52.98264957
  |  185: Species O             4.55967583       10.40508963       52.98264957
  |  186: Species O             6.56602144        8.91864825       54.25937156
  |  187: Species O             3.28290566        8.91864825       54.98912709
  |  188: Species O             5.28925128       10.40508963       56.26584908
  |  189: Species Ti            6.56599518        8.91864825       56.26584908
  |  190: Species Ti            3.28293193       10.40508963       56.26584908
  |  191: Species O             1.27658631       10.40508963       56.26593662
  |  192: Species O             3.28293193        8.91864825       57.54265861
  |  193: Species O            13.13220047        0.00000000       32.00646790
  |  194: Species O             8.57244585        1.48644138       33.28318989
  |  195: Species Ti            9.84916349        0.00000000       33.28327744
  |  196: Species Ti           13.13222674        1.48644138       33.28327744
  |  197: Species O            11.12590739        1.48644138       33.28327744
  |  198: Species O             6.56612650        0.00000000       34.55999943
  |  199: Species O             9.84913722        0.00000000       35.28966741
  |  200: Species O            11.85548283        1.48644138       36.56647694
  |  201: Species Ti           13.13222674        0.00000000       36.56647694
  |  202: Species Ti            9.84916349        1.48644138       36.56647694
  |  203: Species O             7.84281787        1.48644138       36.56647694
  |  204: Species O             9.84918975        0.00000000       37.84319894
  |  205: Species O            13.13217421        0.00000000       38.57295446
  |  206: Species O             8.57241958        1.48644138       39.84967645
  |  207: Species Ti            9.84913722        0.00000000       39.84967645
  |  208: Species Ti           13.13220047        1.48644138       39.84967645
  |  209: Species O            11.12585486        1.48644138       39.84976400
  |  210: Species O            13.13222674        0.00000000       41.12648599
  |  211: Species O             9.84908469        0.00000000       41.85615397
  |  212: Species O            11.85545657        1.48644138       43.13287596
  |  213: Species Ti           13.13217421        0.00000000       43.13296350
  |  214: Species Ti            9.84911096        1.48644138       43.13296350
  |  215: Species O             7.84279161        1.48644138       43.13296350
  |  216: Species O             9.84913722        0.00000000       44.40968550
  |  217: Species O            13.13214794        0.00000000       45.13944102
  |  218: Species O             8.57236706        1.48644138       46.41616301
  |  219: Species Ti            9.84911096        0.00000000       46.41616301
  |  220: Species Ti           13.13217421        1.48644138       46.41616301
  |  221: Species O            11.12582859        1.48644138       46.41616301
  |  222: Species O            13.13220047        0.00000000       47.69297255
  |  223: Species O             9.84905843        0.00000000       48.42264053
  |  224: Species O            11.85543031        1.48644138       49.69936252
  |  225: Species Ti           13.13214794        0.00000000       49.69945006
  |  226: Species Ti            9.84908469        1.48644138       49.69945006
  |  227: Species O             7.84273908        1.48644138       49.69945006
  |  228: Species O             9.84911096        0.00000000       50.97617206
  |  229: Species O            13.13209541        0.00000000       51.70584003
  |  230: Species O             8.57234079        1.48644138       52.98264957
  |  231: Species Ti            9.84905843        0.00000000       52.98264957
  |  232: Species Ti           13.13212168        1.48644138       52.98264957
  |  233: Species O            11.12580233        1.48644138       52.98264957
  |  234: Species O            13.13214794        0.00000000       54.25937156
  |  235: Species O             9.84903216        0.00000000       54.98912709
  |  236: Species O            11.85537778        1.48644138       56.26584908
  |  237: Species Ti           13.13212168        0.00000000       56.26584908
  |  238: Species Ti            9.84905843        1.48644138       56.26584908
  |  239: Species O             7.84271281        1.48644138       56.26593662
  |  240: Species O             9.84905843        0.00000000       57.54265861
  |  241: Species O            13.13220047        2.97288275       32.00646790
  |  242: Species O             8.57244585        4.45932413       33.28318989
  |  243: Species Ti            9.84916349        2.97288275       33.28327744
  |  244: Species Ti           13.13222674        4.45932413       33.28327744
  |  245: Species O            11.12590739        4.45932413       33.28327744
  |  246: Species O             6.56612650        2.97288275       34.55999943
  |  247: Species O             9.84913722        2.97288275       35.28966741
  |  248: Species O            11.85548283        4.45932413       36.56647694
  |  249: Species Ti           13.13222674        2.97288275       36.56647694
  |  250: Species Ti            9.84916349        4.45932413       36.56647694
  |  251: Species O             7.84281787        4.45932413       36.56647694
  |  252: Species O             9.84918975        2.97288275       37.84319894
  |  253: Species O            13.13217421        2.97288275       38.57295446
  |  254: Species O             8.57241958        4.45932413       39.84967645
  |  255: Species Ti            9.84913722        2.97288275       39.84967645
  |  256: Species Ti           13.13220047        4.45932413       39.84967645
  |  257: Species O            11.12585486        4.45932413       39.84976400
  |  258: Species O            13.13222674        2.97288275       41.12648599
  |  259: Species O             9.84908469        2.97288275       41.85615397
  |  260: Species O            11.85545657        4.45932413       43.13287596
  |  261: Species Ti           13.13217421        2.97288275       43.13296350
  |  262: Species Ti            9.84911096        4.45932413       43.13296350
  |  263: Species O             7.84279161        4.45932413       43.13296350
  |  264: Species O             9.84913722        2.97288275       44.40968550
  |  265: Species O            13.13214794        2.97288275       45.13944102
  |  266: Species O             8.57236706        4.45932413       46.41616301
  |  267: Species Ti            9.84911096        2.97288275       46.41616301
  |  268: Species Ti           13.13217421        4.45932413       46.41616301
  |  269: Species O            11.12582859        4.45932413       46.41616301
  |  270: Species O            13.13220047        2.97288275       47.69297255
  |  271: Species O             9.84905843        2.97288275       48.42264053
  |  272: Species O            11.85543031        4.45932413       49.69936252
  |  273: Species Ti           13.13214794        2.97288275       49.69945006
  |  274: Species Ti            9.84908469        4.45932413       49.69945006
  |  275: Species O             7.84273908        4.45932413       49.69945006
  |  276: Species O             9.84911096        2.97288275       50.97617206
  |  277: Species O            13.13209541        2.97288275       51.70584003
  |  278: Species O             8.57234079        4.45932413       52.98264957
  |  279: Species Ti            9.84905843        2.97288275       52.98264957
  |  280: Species Ti           13.13212168        4.45932413       52.98264957
  |  281: Species O            11.12580233        4.45932413       52.98264957
  |  282: Species O            13.13214794        2.97288275       54.25937156
  |  283: Species O             9.84903216        2.97288275       54.98912709
[...]
  | Spin channel:        2

  Lowest unoccupied state (CBM) at  -571.53669899 eV (relative to internal zero)
  | Occupation number:      0.00000000
  | K-point:       1 at    0.000000    0.000000    0.000000 (in units of recip. lattice)
  | Spin channel:        1

  ESTIMATED overall HOMO-LUMO gap:   -563.24227269 eV between HOMO at k-point 2 and LUMO at k-point 1
  | This appears to be an indirect band gap.
  | Smallest direct gap :   -563.24226895 eV for k_point 2 at    0.000000    0.500000    0.000000 (in units of recip. lattice)
  | Direct gap HOMO spin channel :     2
  | Direct gap LUMO spin channel :     1
  However, this system has fractional occupation numbers. Since we use a finite k-point grid,
  this material is metallic within the approximate finite broadening function (occupation_type)
  applied to determine the occupation numbers.

  Total energy components:
  | Sum of eigenvalues            :     -153103.02218064 Ha    -4166145.20466936 eV
  | XC energy correction          :      -15177.73039893 Ha     -413007.05772270 eV
  | XC potential correction       :       19623.81936553 Ha      533991.29411390 eV
  | Free-atom electrostatic energy:     -109477.38646752 Ha    -2979031.25722280 eV
  | Hartree energy correction     :         381.77776482 Ha       10388.70155199 eV
  | Entropy correction            :          -0.00215653 Ha          -0.05868217 eV
  | ---------------------------
  | Total energy                  :     -257752.54191675 Ha    -7013803.52394897 eV
  | Total energy, T -> 0          :     -257752.54407328 Ha    -7013803.58263114 eV  <-- do not rely on this value for anything but (periodic) metals
  | Electronic free energy        :     -257752.54622981 Ha    -7013803.64131331 eV

  Derived energy quantities:
  | Kinetic energy                :      259505.12625577 Ha     7061493.77026682 eV
  | Electrostatic energy          :     -502079.93777359 Ha   -13662290.23649310 eV
  | Energy correction for multipole
  | error in Hartree potential    :           2.47670839 Ha          67.39466433 eV
  | Sum of eigenvalues per atom                           :       -5424.66823525 eV
  | Total energy (T->0) per atom                          :       -9132.55674822 eV  <-- do not rely on this value for anything but (periodic) metals
  | Electronic free energy per atom                       :       -9132.55682463 eV
  Evaluating new KS density using the density matrix
  Evaluating density matrix
  Evaluating density matrix
  Time summed over all CPUs for getting density from density matrix: real work     1818.502 s, elapsed     1872.139 s
  Integration grid: deviation in total charge (<rho> - N_e) =   5.820766E-11
  | <rho_up-rho_dn> = N_up-N_dn =     -1.0816; <|rho_up-rho_dn|> =      1.1284

  Self-consistency convergence accuracy:
  | Change of charge/spin density :  0.1846E+01  0.2249E+00
  | Change of unmixed KS charge/spin density :  0.8054E+00  0.3591E-01
  | Change of sum of eigenvalues  :  0.2884E+03 eV
  | Change of total energy        :  0.3824E+01 eV


------------------------------------------------------------
  End self-consistency iteration #    26       :  max(cpu_time)    wall_clock(cpu1)
  | Time for this iteration                     :     2358.898 s        2358.981 s
  | Charge density update                       :      124.890 s         124.894 s
  | Density mixing & preconditioning            :      120.616 s         120.620 s
  | Hartree multipole update                    :        0.075 s           0.074 s
  | Hartree multipole summation                 :        4.286 s           4.287 s
  | Integration                                 :       39.758 s          39.759 s
  | Solution of K.-S. eqns.                     :     2069.214 s        2069.329 s
  | Total energy evaluation                     :        0.001 s           0.001 s

  Partial memory accounting:
  | Current value for overall tracked memory usage:
  |   Minimum:      889.597 MB (on task  7)
  |   Maximum:     2695.771 MB (on task  1)
  |   Average:      946.077 MB
  | Peak value for overall tracked memory usage:
  |   Minimum:     2656.324 MB (on task 13 after allocating kdm_complex)
  |   Maximum:    10586.496 MB (on task  1 after allocating eval_tmp)
  |   Average:     2904.870 MB
  | Largest tracked array allocation so far:
  |   Minimum:     1753.430 MB (KS_eigenvector on task  0)
  |   Maximum:     1806.172 MB (KS_eigenvector on task  1)
  |   Average:     1755.078 MB
  Note:  These values currently only include a subset of arrays which are explicitly tracked.
  The "true" memory usage will be greater.
------------------------------------------------------------

------------------------------------------------------------
          Begin self-consistency iteration #   27

  Date     :  20241021, Time     :  112533.897
------------------------------------------------------------
  Pulay mixing of updated and previous charge densities.
  Available memory per node after mixing [GB]:    938.47
  Renormalizing the density to the exact electron count on the 3D integration grid.
  | Formal number of electrons (from input files) :    9727.0000000000
  | Integrated number of electrons on 3D grid     :    9726.9922084334
  | Charge integration error                      :      -0.0077915666
  | Normalization factor for density and gradient :       1.0000008010

  Evaluating partitioned Hartree potential by multipole expansion.
  | Original multipole sum: apparent total charge =   0.100000E+01
  | Sum of charges compensated after spline to logarithmic grids =   0.233574E-02
  | Analytical far-field extrapolation by fixed multipoles:
  | Hartree multipole sum: apparent total charge =   0.100000E+01
  Summing up the Hartree potential.
  Time summed over all CPUs for potential: real work        4.059 s, elapsed        4.146 s
  | RMS charge density error from multipole expansion :   0.202884E+00
  | Average real-space part of the electrostatic potential :      0.19512316 eV

  Integrating Hamiltonian matrix: batch-based integration.
  Time summed over all CPUs for integration: real work     2363.025 s, elapsed     2451.496 s

  Updating Kohn-Sham eigenvalues, eigenvectors, occupation numbers, and Fermi level.
  Determining occupation numbers for Kohn-Sham eigenstates.
  | Chemical potential (Fermi level) in eV                 : -.8347E+01
  | Error in electron count due to remaining E_F inaccuracy: 0.3638E-11

  Current spin moment of the entire structure :
  | N = N_up - N_down (sum over all k points):         1.46255
  | S (sum over all k points)                :         0.73127

  What follows are estimated values for band gap, HOMO, LUMO, etc.
  | They are estimated on a discrete k-point grid and not necessarily exact.
  | For converged numbers, create a DOS and/or band structure plot on a denser k-grid.

  Highest occupied state (VBM) at     -8.34885718 eV (relative to internal zero)
  | Occupation number:      0.52140760
  | K-point:       1 at    0.000000    0.000000    0.000000 (in units of recip. lattice)
  | Spin channel:        2

  Lowest unoccupied state (CBM) at  -571.90437364 eV (relative to internal zero)
  | Occupation number:      0.00000000
  | K-point:       1 at    0.000000    0.000000    0.000000 (in units of recip. lattice)
  | Spin channel:        1

  ESTIMATED overall HOMO-LUMO gap:   -563.55551646 eV between HOMO at k-point 1 and LUMO at k-point 1
  | This appears to be a direct band gap.
  However, this system has fractional occupation numbers. Since we use a finite k-point grid,
  this material is metallic within the approximate finite broadening function (occupation_type)
  applied to determine the occupation numbers.

  Total energy components:
  | Sum of eigenvalues            :     -153091.06953047 Ha    -4165819.95650973 eV
  | XC energy correction          :      -15177.73116537 Ha     -413007.07857861 eV
  | XC potential correction       :       19623.82082579 Ha      533991.33384979 eV
  | Free-atom electrostatic energy:     -109477.38646752 Ha    -2979031.25722280 eV
  | Hartree energy correction     :         369.84665693 Ha       10064.03958786 eV
  | Entropy correction            :          -0.00140069 Ha          -0.03811472 eV
  | ---------------------------
  | Total energy                  :     -257752.51968063 Ha    -7013802.91887349 eV
  | Total energy, T -> 0          :     -257752.52108132 Ha    -7013802.95698821 eV  <-- do not rely on this value for anything but (periodic) metals
  | Electronic free energy        :     -257752.52248201 Ha    -7013802.99510293 eV

  Derived energy quantities:
  | Kinetic energy                :      259504.54347184 Ha     7061477.91190929 eV
  | Electrostatic energy          :     -502079.33198710 Ha   -13662273.75220417 eV
  | Energy correction for multipole
  | error in Hartree potential    :           2.47728875 Ha          67.41045673 eV
  | Sum of eigenvalues per atom                           :       -5424.24473504 eV
  | Total energy (T->0) per atom                          :       -9132.55593358 eV  <-- do not rely on this value for anything but (periodic) metals
  | Electronic free energy per atom                       :       -9132.55598321 eV
  Evaluating new KS density using the density matrix
  Evaluating density matrix
  Evaluating density matrix
  Time summed over all CPUs for getting density from density matrix: real work     1961.808 s, elapsed     2886.684 s
  Integration grid: deviation in total charge (<rho> - N_e) =   6.002665E-11
  | <rho_up-rho_dn> = N_up-N_dn =     -1.4625; <|rho_up-rho_dn|> =      1.4819

  Self-consistency convergence accuracy:
  | Change of charge/spin density :  0.7458E+00  0.2003E+00
  | Change of unmixed KS charge/spin density :  0.1313E+01  0.2959E-01
  | Change of sum of eigenvalues  :  0.3252E+03 eV
  | Change of total energy        :  0.6051E+00 eV


------------------------------------------------------------
  End self-consistency iteration #    27       :  max(cpu_time)    wall_clock(cpu1)
  | Time for this iteration                     :     2372.852 s        2372.936 s
  | Charge density update                       :      143.466 s         143.471 s
  | Density mixing & preconditioning            :      120.409 s         120.414 s
  | Hartree multipole update                    :        0.078 s           0.077 s
  | Hartree multipole summation                 :        4.432 s           4.433 s
  | Integration                                 :       39.319 s          39.320 s
  | Solution of K.-S. eqns.                     :     2065.086 s        2065.197 s
  | Total energy evaluation                     :        0.001 s           0.003 s

  Partial memory accounting:
  | Current value for overall tracked memory usage:
  |   Minimum:      889.597 MB (on task  7)
  |   Maximum:     2695.771 MB (on task  1)
  |   Average:      946.077 MB
  | Peak value for overall tracked memory usage:
  |   Minimum:     2656.324 MB (on task 13 after allocating kdm_complex)
  |   Maximum:    10586.496 MB (on task  1 after allocating eval_tmp)
  |   Average:     2904.870 MB
  | Largest tracked array allocation so far:
  |   Minimum:     1753.430 MB (KS_eigenvector on task  0)
  |   Maximum:     1806.172 MB (KS_eigenvector on task  1)
  |   Average:     1755.078 MB
  Note:  These values currently only include a subset of arrays which are explicitly tracked.
  The "true" memory usage will be greater.
------------------------------------------------------------

------------------------------------------------------------
          Begin self-consistency iteration #   28

  Date     :  20241021, Time     :  120506.834
------------------------------------------------------------
  Pulay mixing of updated and previous charge densities.
  Available memory per node after mixing [GB]:    928.74
  Renormalizing the density to the exact electron count on the 3D integration grid.
  | Formal number of electrons (from input files) :    9727.0000000000
  | Integrated number of electrons on 3D grid     :    9726.9970358610
  | Charge integration error                      :      -0.0029641390
  | Normalization factor for density and gradient :       1.0000003047

  Evaluating partitioned Hartree potential by multipole expansion.
  | Original multipole sum: apparent total charge =   0.100000E+01
  | Sum of charges compensated after spline to logarithmic grids =   0.234355E-02
  | Analytical far-field extrapolation by fixed multipoles:
  | Hartree multipole sum: apparent total charge =   0.100000E+01
  Summing up the Hartree potential.
  Time summed over all CPUs for potential: real work        4.545 s, elapsed        7.680 s
  | RMS charge density error from multipole expansion :   0.202887E+00
  | Average real-space part of the electrostatic potential :      0.19510354 eV

  Integrating Hamiltonian matrix: batch-based integration.
  Time summed over all CPUs for integration: real work     2403.786 s, elapsed     3731.699 s => Consider using load balancing!

  Updating Kohn-Sham eigenvalues, eigenvectors, occupation numbers, and Fermi level.
  Determining occupation numbers for Kohn-Sham eigenstates.
  | Chemical potential (Fermi level) in eV                 : -.8346E+01
  | Error in electron count due to remaining E_F inaccuracy: -.9022E-09

  Current spin moment of the entire structure :
  | N = N_up - N_down (sum over all k points):         1.55337
  | S (sum over all k points)                :         0.77669

  What follows are estimated values for band gap, HOMO, LUMO, etc.
  | They are estimated on a discrete k-point grid and not necessarily exact.
  | For converged numbers, create a DOS and/or band structure plot on a denser k-grid.

  Highest occupied state (VBM) at     -8.35502778 eV (relative to internal zero)
  | Occupation number:      0.60528446
  | K-point:       1 at    0.000000    0.000000    0.000000 (in units of recip. lattice)
  | Spin channel:        2

  Lowest unoccupied state (CBM) at  -572.31827576 eV (relative to internal zero)
  | Occupation number:      0.00000000
  | K-point:       1 at    0.000000    0.000000    0.000000 (in units of recip. lattice)
  | Spin channel:        1

  ESTIMATED overall HOMO-LUMO gap:   -563.96324798 eV between HOMO at k-point 1 and LUMO at k-point 1
  | This appears to be a direct band gap.
  However, this system has fractional occupation numbers. Since we use a finite k-point grid,
  this material is metallic within the approximate finite broadening function (occupation_type)
  applied to determine the occupation numbers.

  Total energy components:
  | Sum of eigenvalues            :     -153079.45516999 Ha    -4165503.91368114 eV
  | XC energy correction          :      -15177.69735494 Ha     -413006.15855004 eV
  | XC potential correction       :       19623.77823485 Ha      533990.17489121 eV
  | Free-atom electrostatic energy:     -109477.38646752 Ha    -2979031.25722280 eV
  | Hartree energy correction     :         358.24280758 Ha        9748.28278145 eV
  | Entropy correction            :          -0.00101074 Ha          -0.02750355 eV
  | ---------------------------
  | Total energy                  :     -257752.51795003 Ha    -7013802.87178132 eV
  | Total energy, T -> 0          :     -257752.51896076 Ha    -7013802.89928487 eV  <-- do not rely on this value for anything but (periodic) metals
  | Electronic free energy        :     -257752.51997150 Ha    -7013802.92678842 eV

  Derived energy quantities:
  | Kinetic energy                :      259503.89305524 Ha     7061460.21317293 eV
  | Electrostatic energy          :     -502078.71365032 Ha   -13662256.92640421 eV
  | Energy correction for multipole
  | error in Hartree potential    :           2.47762233 Ha          67.41953388 eV
  | Sum of eigenvalues per atom                           :       -5423.83322094 eV
  | Total energy (T->0) per atom                          :       -9132.55585844 eV  <-- do not rely on this value for anything but (periodic) metals
  | Electronic free energy per atom                       :       -9132.55589426 eV
  Evaluating new KS density using the density matrix
  Evaluating density matrix
  Evaluating density matrix
  Time summed over all CPUs for getting density from density matrix: real work     2027.600 s, elapsed     2118.471 s
  Integration grid: deviation in total charge (<rho> - N_e) =  -8.240022E-10
  | <rho_up-rho_dn> = N_up-N_dn =     -1.5534; <|rho_up-rho_dn|> =      1.5733

  Self-consistency convergence accuracy:
  | Change of charge/spin density :  0.4887E+00  0.2227E+00
  | Change of unmixed KS charge/spin density :  0.3746E+00  0.9388E-01
  | Change of sum of eigenvalues  :  0.3160E+03 eV
  | Change of total energy        :  0.4709E-01 eV


------------------------------------------------------------
  End self-consistency iteration #    28       :  max(cpu_time)    wall_clock(cpu1)
  | Time for this iteration                     :     2611.981 s        2612.073 s
  | Charge density update                       :      148.922 s         148.927 s
  | Density mixing & preconditioning            :      132.128 s         132.132 s
  | Hartree multipole update                    :        0.085 s           0.085 s
  | Hartree multipole summation                 :        8.103 s           8.103 s
  | Integration                                 :       59.190 s          59.192 s
  | Solution of K.-S. eqns.                     :     2263.462 s        2263.598 s
  | Total energy evaluation                     :        0.002 s           0.004 s

  Partial memory accounting:
  | Current value for overall tracked memory usage:
  |   Minimum:      889.597 MB (on task  7)
  |   Maximum:     2695.771 MB (on task  1)
  |   Average:      946.077 MB
  | Peak value for overall tracked memory usage:
  |   Minimum:     2656.324 MB (on task 13 after allocating kdm_complex)
  |   Maximum:    10586.496 MB (on task  1 after allocating eval_tmp)
  |   Average:     2904.870 MB
  | Largest tracked array allocation so far:
  |   Minimum:     1753.430 MB (KS_eigenvector on task  0)
  |   Maximum:     1806.172 MB (KS_eigenvector on task  1)
  |   Average:     1755.078 MB
  Note:  These values currently only include a subset of arrays which are explicitly tracked.
  The "true" memory usage will be greater.
------------------------------------------------------------

------------------------------------------------------------
          Begin self-consistency iteration #   29

  Date     :  20241021, Time     :  124838.907
------------------------------------------------------------
  Pulay mixing of updated and previous charge densities.
  Available memory per node after mixing [GB]:    895.01
  Renormalizing the density to the exact electron count on the 3D integration grid.
  | Formal number of electrons (from input files) :    9727.0000000000
  | Integrated number of electrons on 3D grid     :    9727.0002422351
  | Charge integration error                      :       0.0002422351
  | Normalization factor for density and gradient :       0.9999999751

  Evaluating partitioned Hartree potential by multipole expansion.
  | Original multipole sum: apparent total charge =   0.100000E+01
  | Sum of charges compensated after spline to logarithmic grids =   0.234456E-02
  | Analytical far-field extrapolation by fixed multipoles:
  | Hartree multipole sum: apparent total charge =   0.100000E+01
  Summing up the Hartree potential.
  Time summed over all CPUs for potential: real work        4.439 s, elapsed        4.682 s
  | RMS charge density error from multipole expansion :   0.202890E+00
  | Average real-space part of the electrostatic potential :      0.19509947 eV

  Integrating Hamiltonian matrix: batch-based integration.
  Time summed over all CPUs for integration: real work     2718.966 s, elapsed     2898.926 s

  Updating Kohn-Sham eigenvalues, eigenvectors, occupation numbers, and Fermi level.
