------------------------------------------------------------
          Invoking FHI-aims ...

          When using FHI-aims, please cite the following reference:

            Volker Blum, Ralf Gehrke, Felix Hanke, Paula Havu,
            Ville Havu, Xinguo Ren, Karsten Reuter, and Matthias Scheffler,
            'Ab Initio Molecular Simulations with Numeric Atom-Centered Orbitals',
            Computer Physics Communications 180, 2175-2196 (2009)

          In addition, many other developments in FHI-aims are likely important for
          your particular application. If so, please cite them. A partial list of references
          is written at the end of this file. Thank you for giving credit to the authors
          of these developments.

          For general information about FHI-aims please find us at

            https://fhi-aims.org

          Online tutorials can be found at

            https://fhi-aims-club.gitlab.io/tutorials/tutorials-overview/

          For any questions about FHI-aims, please visit our slack channel at

            https://fhi-aims.slack.com

          and our main development and support site at

            https://aims-git.rz-berlin.mpg.de .

          The latter site, in particular, has a wiki to collect information, as well
          as an issue tracker to log discussions, suggest improvements, and report issues
          or bugs. https://aims-git.rz-berlin.mpg.de is also the main development site
          of the project and all new and updated code versions can be obtained there.
          Please send an email to aims-coordinators@fhi-berlin.mpg.de and we will add
          you to these sites. They are for you and everyone is welcome there.

------------------------------------------------------------



  Date     :  20250327, Time     :  191547.496
  Time zero on CPU 1             :   0.413418000000000E+00  s.
  Internal wall clock time zero  :           512334947.496  s.

  FHI-aims created a unique identifier for this run for later identification
  aims_uuid : 4FF952D2-66C7-4F2A-A501-612A073A7AB6

  Build configuration of the current instance of FHI-aims
  -------------------------------------------------------
  FHI-aims version      : 240605
  Commit number         : b001b2e18
  CMake host system     : Linux-6.5.0-41-generic
  CMake version         : 3.22.1
  Fortran compiler      : /opt/intel/oneapi/mpi/2021.12/bin/mpiifort (IntelLLVM) version 2024.1.0
  Fortran compiler flags: -fc=ifx -O3 -ip -fp-model precise
  C compiler            : /opt/intel/oneapi/mpi/2021.12/bin/mpiicc (IntelLLVM) version 2024.1.0
  C compiler flags      : -cc=icx -O3 -ip -fp-model precise -std=gnu99
  C++ compiler          : /opt/intel/oneapi/mpi/2021.12/bin/mpiicpc (IntelLLVM) version 2024.1.0
  C++ compiler flags    : -cxx=icpx -O3 -ip -fp-model precise -std=c++11
  HIP compiler          :
  HIP compiler flags    :
  HIP GPU arch          :
  Using MPI
  Using ScaLAPACK
  Using LibXC
  Using i-PI
  Using RLSY
  Linking against: /opt/intel/oneapi/mkl/2024.1/lib/intel64/libmkl_intel_lp64.so
                   /opt/intel/oneapi/mkl/2024.1/lib/intel64/libmkl_sequential.so
                   /opt/intel/oneapi/mkl/2024.1/lib/intel64/libmkl_core.so
                   /opt/intel/oneapi/mkl/2024.1/lib/intel64/libmkl_blacs_intelmpi_lp64.so
                   /opt/intel/oneapi/mkl/2024.1/lib/intel64/libmkl_scalapack_lp64.so
                   /opt/intel/oneapi/mkl/2024.1/lib/intel64/libmkl_core.so

  Using       32 parallel tasks.
  Task        0 on host RSL-arvutus reporting.
  Task        1 on host RSL-arvutus reporting.
  Task        2 on host RSL-arvutus reporting.
  Task        3 on host RSL-arvutus reporting.
  Task        4 on host RSL-arvutus reporting.
  Task        5 on host RSL-arvutus reporting.
  Task        6 on host RSL-arvutus reporting.
  Task        7 on host RSL-arvutus reporting.
  Task        8 on host RSL-arvutus reporting.
  Task        9 on host RSL-arvutus reporting.
  Task       10 on host RSL-arvutus reporting.
  Task       11 on host RSL-arvutus reporting.
  Task       12 on host RSL-arvutus reporting.
  Task       13 on host RSL-arvutus reporting.
  Task       14 on host RSL-arvutus reporting.
  Task       15 on host RSL-arvutus reporting.
  Task       16 on host RSL-arvutus reporting.
  Task       17 on host RSL-arvutus reporting.
  Task       18 on host RSL-arvutus reporting.
  Task       19 on host RSL-arvutus reporting.
  Task       20 on host RSL-arvutus reporting.
  Task       21 on host RSL-arvutus reporting.
  Task       22 on host RSL-arvutus reporting.
  Task       23 on host RSL-arvutus reporting.
  Task       24 on host RSL-arvutus reporting.
  Task       25 on host RSL-arvutus reporting.
  Task       26 on host RSL-arvutus reporting.
  Task       27 on host RSL-arvutus reporting.
  Task       28 on host RSL-arvutus reporting.
  Task       29 on host RSL-arvutus reporting.
  Task       30 on host RSL-arvutus reporting.
  Task       31 on host RSL-arvutus reporting.

  Memory overcommitment is allowed on your operating system.

  Obtaining array dimensions for all initial allocations:
  
  -----------------------------------------------------------------------
  Parsing control.in (first pass over file, find array dimensions only).
  The contents of control.in will be repeated verbatim below
  unless switched off by setting 'verbatim_writeout .false.' .
  in the first line of control.in .
  -----------------------------------------------------------------------
  
    xc              pbe
    relativistic    zora scalar 1.0e-12
    k_grid          3 3 1
  
    spin            collinear
    default_initial_moment        0.0
  
    charge	  1.0
  
  ################################################################################
  #
  #  FHI-aims code project
  #  VB, Fritz-Haber Institut, 2009
  #
  #  Suggested "light" defaults for Ti atom (to be pasted into control.in file)
  #  Be sure to double-check any results obtained with these settings for post-processing,
  #  e.g., with the "tight" defaults and larger basis sets.
  #
  ################################################################################
    species        Ti
  #     global species definitions
      nucleus             22
      mass                47.867
  #
      l_hartree           4
  #
      cut_pot             3.5          1.5  1.0
      basis_dep_cutoff    1e-4
  #
      radial_base         48 5.0
      radial_multiplier   1
      angular_grids       specified
        division   0.5171   50
        division   0.9824  110
        division   1.2917  194
        division   1.4940  302
  #      division   1.6934  434
  #      division   1.8425  590
  #      division   2.1901  770
  #      division   2.2896  974
  #      division   2.8244 1202
  #      outer_grid  974
        outer_grid  302
  ################################################################################
  #
  #  Definition of "minimal" basis
  #
  ################################################################################
  #     valence basis states
      valence      4  s   2.
      valence      3  p   6.
      valence      3  d   2.
  #     ion occupancy
      ion_occ      4  s   1.
      ion_occ      3  p   6.
      ion_occ      3  d   1.
  ################################################################################
  #
  #  Suggested additional basis functions. For production calculations,
  #  uncomment them one after another (the most important basis functions are
  #  listed first).
  #
  #  Constructed for dimers: 1.6 A, 1.85 A, 2.5 A, 3.25 A, 4.25 A
  #
  ################################################################################
  #  "First tier" - improvements: -396.25 meV to -19.41 meV
       hydro 4 f 8
       hydro 3 d 2.7
       ionic 4 p auto
  #     hydro 5 g 11.6
       ionic 4 s auto
  #  "Second tier" - improvements: -16.30 meV to -2.03 meV
  #     hydro 3 d 4.4
  #     hydro 6 h 16
  #     hydro 4 f 9.4
  #     hydro 4 p 4.5
  #     hydro 1 s 0.5
  #  "Third tier" - improvements: -6.28 meV to -0.37 meV
  #     hydro 4 d 6.4
  #     hydro 4 f 10
  #     hydro 5 g 12
  #     hydro 2 p 1.7
  #     hydro 6 h 16.4
  #     hydro 4 s 3.8
  #  Further basis functions: -0.45 meV and smaller improvements
  #     hydro 3 d 8.8
  #     hydro 5 p 18
  #     hydro 4 f 22.4
  #     hydro 5 f 7.2  # -0.16 meV
  #     hydro 3 d 2.1  # -0.11 meV
  #     hydro 5 g 7.4  # -0.09 meV
  
  
  ################################################################################
  #
  #  FHI-aims code project
  #  VB, Fritz-Haber Institut, 2009
  #
  #  Suggested "light" defaults for O atom (to be pasted into control.in file)
  #  Be sure to double-check any results obtained with these settings for post-processing,
  #  e.g., with the "tight" defaults and larger basis sets.
  #
  ################################################################################
    species        O
  #     global species definitions
      nucleus             8
      mass                15.9994
  #
      l_hartree           4
  #
      cut_pot             3.5  1.5  1.0
      basis_dep_cutoff    1e-4
  #
      radial_base         36 5.0
      radial_multiplier   1
       angular_grids specified
        division   0.2659   50
        division   0.4451  110
        division   0.6052  194
        division   0.7543  302
  #      division   0.8014  434
  #      division   0.8507  590
  #      division   0.8762  770
  #      division   0.9023  974
  #      division   1.2339 1202
  #      outer_grid 974
        outer_grid 302
  ################################################################################
  #
  #  Definition of "minimal" basis
  #
  ################################################################################
  #     valence basis states
      valence      2  s   2.
      valence      2  p   4.
  #     ion occupancy
      ion_occ      2  s   1.
      ion_occ      2  p   3.
  ################################################################################
  #
  #  Suggested additional basis functions. For production calculations,
  #  uncomment them one after another (the most important basis functions are
  #  listed first).
  #
  #  Constructed for dimers: 1.0 A, 1.208 A, 1.5 A, 2.0 A, 3.0 A
  #
  ################################################################################
  #  "First tier" - improvements: -699.05 meV to -159.38 meV
       hydro 2 p 1.8
       hydro 3 d 7.6
       hydro 3 s 6.4
  #  "Second tier" - improvements: -49.91 meV to -5.39 meV
  #     hydro 4 f 11.6
  #     hydro 3 p 6.2
  #     hydro 3 d 5.6
  #     hydro 5 g 17.6
  #     hydro 1 s 0.75
  #  "Third tier" - improvements: -2.83 meV to -0.50 meV
  #     ionic 2 p auto
  #     hydro 4 f 10.8
  #     hydro 4 d 4.7
  #     hydro 2 s 6.8
  #  "Fourth tier" - improvements: -0.40 meV to -0.12 meV
  #     hydro 3 p 5
  #     hydro 3 s 3.3
  #     hydro 5 g 15.6
  #     hydro 4 f 17.6
  #     hydro 4 d 14
  # Further basis functions - -0.08 meV and below
  #     hydro 3 s 2.1
  #     hydro 4 d 11.6
  #     hydro 3 p 16
  #     hydro 2 s 17.2
  ################################################################################
  #
  #  FHI-aims code project
  #  VB, Fritz-Haber Institut, 2009
  #
  #  Suggested "light" defaults for F atom (to be pasted into control.in file)
  #  Be sure to double-check any results obtained with these settings for post-processing,
  #  e.g., with the "tight" defaults and larger basis sets.
  #
  ################################################################################
    species        F
  #     global species definitions
      nucleus             9
      mass                18.9984032
  #
      l_hartree           4
  #
      cut_pot             3.5  1.5  1.0
      basis_dep_cutoff    1e-4
  #
      radial_base         37 5.0
      radial_multiplier   1
      angular_grids specified
        division   0.4014  110
        division   0.5291  194
        division   0.6019  302
  #      division   0.6814  434
  #      division   0.7989  590
  #      division   0.8965  770
  #      division   1.3427  974
  #      outer_grid   974
        outer_grid   302
  ################################################################################
  #
  #  Definition of "minimal" basis
  #
  ################################################################################
  #     valence basis states
      valence      2  s   2.
      valence      2  p   5.
  #     ion occupancy
      ion_occ      2  s   1.
      ion_occ      2  p   4.
  ################################################################################
  #
  #  Suggested additional basis functions. For production calculations,
  #  uncomment them one after another (the most important basis functions are
  #  listed first).
  #
  #  Constructed for dimers: 1.2 A, 1.418 A, 1.75 A, 2.25 A, 3.25 A
  #
  ################################################################################
  #  "First tier" - improvements: -149.44 meV to -45.88 meV
       hydro 2 p 1.7
       hydro 3 d 7.4
       hydro 3 s 6.8
  #  "Second tier" - improvements: -12.96 meV to -1.56 meV
  #     hydro 4 f 11.2
  #     ionic 2 p auto
  #     hydro 1 s 0.75
  #     hydro 4 d 8.8
  #     hydro 5 g 16.8
  #  "Third tier" - improvements: -0.58 meV to -0.05 meV
  #     hydro 3 p 6.2
  #     hydro 3 s 3.2
  #     hydro 4 f 9.6
  #     hydro 3 s 19.6
  #     hydro 4 d 8.6
  #     hydro 5 g 14.4
  # Further basis functions: -0.05 meV and below
  #     hydro 3 p 4.2
  
  -----------------------------------------------------------------------
  Completed first pass over input file control.in .
  -----------------------------------------------------------------------
  
  
  -----------------------------------------------------------------------
  Parsing geometry.in (first pass over file, find array dimensions only).
  The contents of geometry.in will be repeated verbatim below
  unless switched off by setting 'verbatim_writeout .false.' .
  in the first line of geometry.in .
  -----------------------------------------------------------------------
  
  lattice_vector 19.698380 0.000000 0.000000
  lattice_vector 0.000000 17.837296 0.000000
  lattice_vector 0.000000 0.000000 65.976178
  
  atom_frac 0.333331 0.000000 0.371444 O
  atom_frac 0.101852 0.083334 0.390796 O
  atom_frac 0.166666 0.000000 0.390796 Ti
  atom_frac 0.333332 0.083334 0.390796 Ti
  atom_frac 0.231480 0.083334 0.390797 O
  atom_frac 0.000000 0.000000 0.410148 O
  atom_frac 0.166664 0.000000 0.421208 O
  atom_frac 0.268518 0.083334 0.440560 O
  atom_frac 0.333332 0.000000 0.440560 Ti
  atom_frac 0.166665 0.083334 0.440560 Ti
  atom_frac 0.064812 0.083334 0.440561 O
  atom_frac 0.166666 0.000000 0.459912 O
  atom_frac 0.333330 0.000000 0.470972 O
  atom_frac 0.101850 0.083334 0.490324 O
  atom_frac 0.166664 0.000000 0.490324 Ti
  atom_frac 0.333331 0.083334 0.490324 Ti
  atom_frac 0.231478 0.083334 0.490324 O
  atom_frac 0.333332 0.000000 0.509676 O
  atom_frac 0.166662 0.000000 0.520736 O
  atom_frac 0.268516 0.083334 0.540088 O
  atom_frac 0.333330 0.000000 0.540088 Ti
  atom_frac 0.166663 0.083334 0.540088 Ti
  atom_frac 0.064810 0.083334 0.540088 O
  atom_frac 0.166664 0.000000 0.559440 O
  atom_frac 0.333328 0.000000 0.570500 O
  atom_frac 0.101848 0.083334 0.589851 O
  atom_frac 0.166662 0.000000 0.589852 Ti
  atom_frac 0.333329 0.083334 0.589852 Ti
  atom_frac 0.231476 0.083334 0.589852 O
  atom_frac 0.333330 0.000000 0.609204 O
  atom_frac 0.166660 0.000000 0.620264 O
  atom_frac 0.268514 0.083334 0.639615 O
  atom_frac 0.333328 0.000000 0.639616 Ti
  atom_frac 0.166661 0.083334 0.639616 Ti
  atom_frac 0.064809 0.083334 0.639616 O
  atom_frac 0.166662 0.000000 0.658968 O
  atom_frac 0.333331 0.166667 0.371444 O
  atom_frac 0.101852 0.250000 0.390796 O
  atom_frac 0.166666 0.166667 0.390796 Ti
  atom_frac 0.333332 0.250000 0.390796 Ti
  atom_frac 0.231480 0.250000 0.390797 O
  atom_frac 0.000000 0.166667 0.410148 O
  atom_frac 0.166664 0.166667 0.421208 O
  atom_frac 0.268518 0.250000 0.440560 O
  atom_frac 0.333332 0.166667 0.440560 Ti
  atom_frac 0.166665 0.250000 0.440560 Ti
  atom_frac 0.064812 0.250000 0.440561 O
  atom_frac 0.166666 0.166667 0.459912 O
  atom_frac 0.333330 0.166667 0.470972 O
  atom_frac 0.101850 0.250000 0.490324 O
  atom_frac 0.166664 0.166667 0.490324 Ti
  atom_frac 0.333331 0.250000 0.490324 Ti
  atom_frac 0.231478 0.250000 0.490324 O
  atom_frac 0.333332 0.166667 0.509676 O
  atom_frac 0.166662 0.166667 0.520736 O
  atom_frac 0.268516 0.250000 0.540088 O
  atom_frac 0.333330 0.166667 0.540088 Ti
  atom_frac 0.166663 0.250000 0.540088 Ti
  atom_frac 0.064810 0.250000 0.540088 O
  atom_frac 0.166664 0.166667 0.559440 O
  atom_frac 0.333328 0.166667 0.570500 O
  atom_frac 0.101848 0.250000 0.589851 O
  atom_frac 0.166662 0.166667 0.589852 Ti
  atom_frac 0.333329 0.250000 0.589852 Ti
  atom_frac 0.231476 0.250000 0.589852 O
  atom_frac 0.333330 0.166667 0.609204 O
  atom_frac 0.166660 0.166667 0.620264 O
  atom_frac 0.268514 0.250000 0.639615 O
  atom_frac 0.333328 0.166667 0.639616 Ti
  atom_frac 0.166661 0.250000 0.639616 Ti
  atom_frac 0.064809 0.250000 0.639616 O
  atom_frac 0.166662 0.166667 0.658968 O
  atom_frac 0.333331 0.333334 0.371444 O
  atom_frac 0.101852 0.416667 0.390796 O
  atom_frac 0.166666 0.333334 0.390796 Ti
  atom_frac 0.333332 0.416667 0.390796 Ti
  atom_frac 0.231480 0.416667 0.390797 O
  atom_frac 0.000000 0.333334 0.410148 O
  atom_frac 0.166664 0.333334 0.421208 O
  atom_frac 0.268518 0.416667 0.440560 O
  atom_frac 0.333332 0.333334 0.440560 Ti
  atom_frac 0.166665 0.416667 0.440560 Ti
  atom_frac 0.064812 0.416667 0.440561 O
  atom_frac 0.166666 0.333334 0.459912 O
  atom_frac 0.333330 0.333334 0.470972 O
  atom_frac 0.101850 0.416667 0.490324 O
  atom_frac 0.166664 0.333334 0.490324 Ti
  atom_frac 0.333331 0.416667 0.490324 Ti
  atom_frac 0.231478 0.416667 0.490324 O
  atom_frac 0.333332 0.333334 0.509676 O
  atom_frac 0.166662 0.333334 0.520736 O
  atom_frac 0.268516 0.416667 0.540088 O
  atom_frac 0.333330 0.333334 0.540088 Ti
  atom_frac 0.166663 0.416667 0.540088 Ti
  atom_frac 0.064810 0.416667 0.540088 O
  atom_frac 0.166664 0.333334 0.559440 O
  atom_frac 0.333328 0.333334 0.570500 O
  atom_frac 0.101848 0.416667 0.589851 O
  atom_frac 0.166662 0.333334 0.589852 Ti
  atom_frac 0.333329 0.416667 0.589852 Ti
  atom_frac 0.231476 0.416667 0.589852 O
  atom_frac 0.333330 0.333334 0.609204 O
  atom_frac 0.166660 0.333334 0.620264 O
  atom_frac 0.268514 0.416667 0.639615 O
  atom_frac 0.333328 0.333334 0.639616 Ti
  atom_frac 0.166661 0.416667 0.639616 Ti
  atom_frac 0.064809 0.416667 0.639616 O
  atom_frac 0.166662 0.333334 0.658968 O
  atom_frac 0.666665 0.000000 0.371444 O
  atom_frac 0.435185 0.083334 0.390796 O
  atom_frac 0.499999 0.000000 0.390796 Ti
  atom_frac 0.666666 0.083334 0.390796 Ti
  atom_frac 0.564813 0.083334 0.390797 O
  atom_frac 0.333334 0.000000 0.410148 O
  atom_frac 0.499997 0.000000 0.421208 O
  atom_frac 0.601851 0.083334 0.440560 O
  atom_frac 0.666665 0.000000 0.440560 Ti
  atom_frac 0.499998 0.083334 0.440560 Ti
  atom_frac 0.398145 0.083334 0.440561 O
  atom_frac 0.499999 0.000000 0.459912 O
  atom_frac 0.666663 0.000000 0.470972 O
  atom_frac 0.435183 0.083334 0.490324 O
  atom_frac 0.499997 0.000000 0.490324 Ti
  atom_frac 0.666664 0.083334 0.490324 Ti
  atom_frac 0.564811 0.083334 0.490324 O
  atom_frac 0.666665 0.000000 0.509676 O
  atom_frac 0.499995 0.000000 0.520736 O
  atom_frac 0.601849 0.083334 0.540088 O
  atom_frac 0.666663 0.000000 0.540088 Ti
  atom_frac 0.499996 0.083334 0.540088 Ti
  atom_frac 0.398144 0.083334 0.540088 O
  atom_frac 0.499998 0.000000 0.559440 O
  atom_frac 0.666661 0.000000 0.570500 O
  atom_frac 0.435182 0.083334 0.589851 O
  atom_frac 0.499996 0.000000 0.589852 Ti
  atom_frac 0.666662 0.083334 0.589852 Ti
  atom_frac 0.564809 0.083334 0.589852 O
  atom_frac 0.666663 0.000000 0.609204 O
  atom_frac 0.499993 0.000000 0.620264 O
  atom_frac 0.601847 0.083334 0.639615 O
  atom_frac 0.666661 0.000000 0.639616 Ti
  atom_frac 0.499995 0.083334 0.639616 Ti
  atom_frac 0.398142 0.083334 0.639616 O
  atom_frac 0.499996 0.000000 0.658968 O
  atom_frac 0.666665 0.166667 0.371444 O
  atom_frac 0.435185 0.250000 0.390796 O
  atom_frac 0.499999 0.166667 0.390796 Ti
  atom_frac 0.666666 0.250000 0.390796 Ti
  atom_frac 0.564813 0.250000 0.390797 O
  atom_frac 0.333334 0.166667 0.410148 O
  atom_frac 0.499997 0.166667 0.421208 O
  atom_frac 0.601851 0.250000 0.440560 O
  atom_frac 0.666665 0.166667 0.440560 Ti
  atom_frac 0.499998 0.250000 0.440560 Ti
  atom_frac 0.398145 0.250000 0.440561 O
  atom_frac 0.499999 0.166667 0.459912 O
  atom_frac 0.666663 0.166667 0.470972 O
  atom_frac 0.435183 0.250000 0.490324 O
  atom_frac 0.499997 0.166667 0.490324 Ti
  atom_frac 0.666664 0.250000 0.490324 Ti
  atom_frac 0.564811 0.250000 0.490324 O
  atom_frac 0.666665 0.166667 0.509676 O
  atom_frac 0.499995 0.166667 0.520736 O
  atom_frac 0.601849 0.250000 0.540088 O
  atom_frac 0.666663 0.166667 0.540088 Ti
  atom_frac 0.499996 0.250000 0.540088 Ti
  atom_frac 0.398144 0.250000 0.540088 O
  atom_frac 0.499998 0.166667 0.559440 O
  atom_frac 0.666661 0.166667 0.570500 O
  atom_frac 0.435182 0.250000 0.589851 O
  atom_frac 0.499996 0.166667 0.589852 Ti
  atom_frac 0.666662 0.250000 0.589852 Ti
  atom_frac 0.564809 0.250000 0.589852 O
  atom_frac 0.666663 0.166667 0.609204 O
  atom_frac 0.499993 0.166667 0.620264 O
  atom_frac 0.601847 0.250000 0.639615 O
  atom_frac 0.666661 0.166667 0.639616 Ti
  atom_frac 0.499995 0.250000 0.639616 Ti
  atom_frac 0.398142 0.250000 0.639616 O
  atom_frac 0.499996 0.166667 0.658968 O
  atom_frac 0.666665 0.333334 0.371444 O
  atom_frac 0.435185 0.416667 0.390796 O
  atom_frac 0.499999 0.333334 0.390796 Ti
  atom_frac 0.666666 0.416667 0.390796 Ti
  atom_frac 0.564813 0.416667 0.390797 O
  atom_frac 0.333334 0.333334 0.410148 O
  atom_frac 0.499997 0.333334 0.421208 O
  atom_frac 0.601851 0.416667 0.440560 O
  atom_frac 0.666665 0.333334 0.440560 Ti
  atom_frac 0.499998 0.416667 0.440560 Ti
  atom_frac 0.398145 0.416667 0.440561 O
  atom_frac 0.499999 0.333334 0.459912 O
  atom_frac 0.666663 0.333334 0.470972 O
  atom_frac 0.435183 0.416667 0.490324 O
  atom_frac 0.499997 0.333334 0.490324 Ti
  atom_frac 0.666664 0.416667 0.490324 Ti
  atom_frac 0.564811 0.416667 0.490324 O
  atom_frac 0.666665 0.333334 0.509676 O
  atom_frac 0.499995 0.333334 0.520736 O
  atom_frac 0.601849 0.416667 0.540088 O
  atom_frac 0.666663 0.333334 0.540088 Ti
  atom_frac 0.499996 0.416667 0.540088 Ti
  atom_frac 0.398144 0.416667 0.540088 O
  atom_frac 0.499998 0.333334 0.559440 O
  atom_frac 0.666661 0.333334 0.570500 O
  atom_frac 0.435182 0.416667 0.589851 O
  atom_frac 0.499996 0.333334 0.589852 Ti
  atom_frac 0.666662 0.416667 0.589852 Ti
  atom_frac 0.564809 0.416667 0.589852 O
  atom_frac 0.666663 0.333334 0.609204 O
  atom_frac 0.499993 0.333334 0.620264 O
  atom_frac 0.601847 0.416667 0.639615 O
  atom_frac 0.666661 0.333334 0.639616 Ti
  atom_frac 0.499995 0.416667 0.639616 Ti
  atom_frac 0.398142 0.416667 0.639616 O
  atom_frac 0.499996 0.333334 0.658968 O
  atom_frac 0.999998 0.000000 0.371444 O
  atom_frac 0.768519 0.083334 0.390796 O
  atom_frac 0.833332 0.000000 0.390796 Ti
  atom_frac 0.999999 0.083334 0.390796 Ti
  atom_frac 0.898146 0.083334 0.390797 O
  atom_frac 0.666667 0.000000 0.410148 O
  atom_frac 0.833330 0.000000 0.421208 O
  atom_frac 0.935184 0.083334 0.440560 O
  atom_frac 0.999998 0.000000 0.440560 Ti
  atom_frac 0.833332 0.083334 0.440560 Ti
  atom_frac 0.731479 0.083334 0.440561 O
  atom_frac 0.833333 0.000000 0.459912 O
  atom_frac 0.999996 0.000000 0.470972 O
  atom_frac 0.768517 0.083334 0.490324 O
  atom_frac 0.833331 0.000000 0.490324 Ti
  atom_frac 0.999997 0.083334 0.490324 Ti
  atom_frac 0.898145 0.083334 0.490324 O
  atom_frac 0.999998 0.000000 0.509676 O
  atom_frac 0.833329 0.000000 0.520736 O
  atom_frac 0.935183 0.083334 0.540088 O
  atom_frac 0.999996 0.000000 0.540088 Ti
  atom_frac 0.833330 0.083334 0.540088 Ti
  atom_frac 0.731477 0.083334 0.540088 O
  atom_frac 0.833331 0.000000 0.559440 O
  atom_frac 0.999994 0.000000 0.570500 O
  atom_frac 0.768515 0.083334 0.589851 O
  atom_frac 0.833329 0.000000 0.589852 Ti
  atom_frac 0.999996 0.083334 0.589852 Ti
  atom_frac 0.898143 0.083334 0.589852 O
  atom_frac 0.999997 0.000000 0.609204 O
  atom_frac 0.833327 0.000000 0.620264 O
  atom_frac 0.935181 0.083334 0.639615 O
  atom_frac 0.999995 0.000000 0.639616 Ti
  atom_frac 0.833328 0.083334 0.639616 Ti
  atom_frac 0.731475 0.083334 0.639616 O
  atom_frac 0.833329 0.000000 0.658968 O
  atom_frac 0.999998 0.166667 0.371444 O
  atom_frac 0.768519 0.250000 0.390796 O
  atom_frac 0.833332 0.166667 0.390796 Ti
  atom_frac 0.999999 0.250000 0.390796 Ti
  atom_frac 0.898146 0.250000 0.390797 O
  atom_frac 0.666667 0.166667 0.410148 O
  atom_frac 0.833330 0.166667 0.421208 O
  atom_frac 0.935184 0.250000 0.440560 O
  atom_frac 0.999998 0.166667 0.440560 Ti
  atom_frac 0.833332 0.250000 0.440560 Ti
  atom_frac 0.731479 0.250000 0.440561 O
  atom_frac 0.833333 0.166667 0.459912 O
  atom_frac 0.999996 0.166667 0.470972 O
  atom_frac 0.768517 0.250000 0.490324 O
  atom_frac 0.833331 0.166667 0.490324 Ti
  atom_frac 0.999997 0.250000 0.490324 Ti
  atom_frac 0.898145 0.250000 0.490324 O
  atom_frac 0.999998 0.166667 0.509676 O
  atom_frac 0.833329 0.166667 0.520736 O
  atom_frac 0.935183 0.250000 0.540088 O
  atom_frac 0.999996 0.166667 0.540088 Ti
  atom_frac 0.833330 0.250000 0.540088 Ti
  atom_frac 0.731477 0.250000 0.540088 O
  atom_frac 0.833331 0.166667 0.559440 O
  atom_frac 0.999994 0.166667 0.570500 O
  atom_frac 0.768515 0.250000 0.589851 O
  atom_frac 0.833329 0.166667 0.589852 Ti
  atom_frac 0.999996 0.250000 0.589852 Ti
  atom_frac 0.898143 0.250000 0.589852 O
  atom_frac 0.999997 0.166667 0.609204 O
  atom_frac 0.833327 0.166667 0.620264 O
  atom_frac 0.935181 0.250000 0.639615 O
  atom_frac 0.999995 0.166667 0.639616 Ti
  atom_frac 0.833328 0.250000 0.639616 Ti
  atom_frac 0.731475 0.250000 0.639616 O
  atom_frac 0.833329 0.166667 0.658968 O
  atom_frac 0.999998 0.333334 0.371444 O
  atom_frac 0.768519 0.416667 0.390796 O
  atom_frac 0.833332 0.333334 0.390796 Ti
  atom_frac 0.999999 0.416667 0.390796 Ti
  atom_frac 0.898146 0.416667 0.390797 O
  atom_frac 0.666667 0.333334 0.410148 O
  atom_frac 0.833330 0.333334 0.421208 O
  atom_frac 0.935184 0.416667 0.440560 O
  atom_frac 0.999998 0.333334 0.440560 Ti
  atom_frac 0.833332 0.416667 0.440560 Ti
  atom_frac 0.731479 0.416667 0.440561 O
  atom_frac 0.833333 0.333334 0.459912 O
  atom_frac 0.999996 0.333334 0.470972 O
  atom_frac 0.768517 0.416667 0.490324 O
  atom_frac 0.833331 0.333334 0.490324 Ti
  atom_frac 0.999997 0.416667 0.490324 Ti
  atom_frac 0.898145 0.416667 0.490324 O
  atom_frac 0.999998 0.333334 0.509676 O
  atom_frac 0.833329 0.333334 0.520736 O
  atom_frac 0.935183 0.416667 0.540088 O
  atom_frac 0.999996 0.333334 0.540088 Ti
  atom_frac 0.833330 0.416667 0.540088 Ti
  atom_frac 0.731477 0.416667 0.540088 O
  atom_frac 0.833331 0.333334 0.559440 O
  atom_frac 0.999994 0.333334 0.570500 O
  atom_frac 0.768515 0.416667 0.589851 O
  atom_frac 0.833329 0.333334 0.589852 Ti
  atom_frac 0.999996 0.416667 0.589852 Ti
  atom_frac 0.898143 0.416667 0.589852 O
  atom_frac 0.999997 0.333334 0.609204 O
  atom_frac 0.833327 0.333334 0.620264 O
  atom_frac 0.935181 0.416667 0.639615 O
  atom_frac 0.999995 0.333334 0.639616 Ti
  atom_frac 0.833328 0.416667 0.639616 Ti
  atom_frac 0.731475 0.416667 0.639616 O
  atom_frac 0.833329 0.333334 0.658968 O
  atom_frac 0.333331 0.500000 0.371444 O
  atom_frac 0.101852 0.583334 0.390796 O
  atom_frac 0.166666 0.500000 0.390796 Ti
  atom_frac 0.333332 0.583334 0.390796 Ti
  atom_frac 0.231480 0.583334 0.390797 O
  atom_frac 0.000000 0.500000 0.410148 O
  atom_frac 0.166664 0.500000 0.421208 O
  atom_frac 0.268518 0.583334 0.440560 O
  atom_frac 0.333332 0.500000 0.440560 Ti
  atom_frac 0.166665 0.583334 0.440560 Ti
  atom_frac 0.064812 0.583334 0.440561 O
  atom_frac 0.166666 0.500000 0.459912 O
  atom_frac 0.333330 0.500000 0.470972 O
  atom_frac 0.101850 0.583334 0.490324 O
  atom_frac 0.166664 0.500000 0.490324 Ti
  atom_frac 0.333331 0.583334 0.490324 Ti
  atom_frac 0.231478 0.583334 0.490324 O
  atom_frac 0.333332 0.500000 0.509676 O
  atom_frac 0.166662 0.500000 0.520736 O
  atom_frac 0.268516 0.583334 0.540088 O
  atom_frac 0.333330 0.500000 0.540088 Ti
  atom_frac 0.166663 0.583334 0.540088 Ti
  atom_frac 0.064810 0.583334 0.540088 O
  atom_frac 0.166664 0.500000 0.559440 O
  atom_frac 0.333328 0.500000 0.570500 O
  atom_frac 0.101848 0.583334 0.589851 O
  atom_frac 0.166662 0.500000 0.589852 Ti
  atom_frac 0.333329 0.583334 0.589852 Ti
  atom_frac 0.231476 0.583334 0.589852 O
  atom_frac 0.333330 0.500000 0.609204 O
  atom_frac 0.166660 0.500000 0.620264 O
  atom_frac 0.268514 0.583334 0.639615 O
  atom_frac 0.333328 0.500000 0.639616 Ti
  atom_frac 0.166661 0.583334 0.639616 Ti
  atom_frac 0.064809 0.583334 0.639616 O
  atom_frac 0.166662 0.500000 0.658968 O
  atom_frac 0.333331 0.666667 0.371444 O
  atom_frac 0.101852 0.750000 0.390796 O
  atom_frac 0.166666 0.666667 0.390796 Ti
  atom_frac 0.333332 0.750000 0.390796 Ti
  atom_frac 0.231480 0.750000 0.390797 O
  atom_frac 0.000000 0.666667 0.410148 O
  atom_frac 0.166664 0.666667 0.421208 O
  atom_frac 0.268518 0.750000 0.440560 O
  atom_frac 0.333332 0.666667 0.440560 Ti
  atom_frac 0.166665 0.750000 0.440560 Ti
  atom_frac 0.064812 0.750000 0.440561 O
  atom_frac 0.166666 0.666667 0.459912 O
  atom_frac 0.333330 0.666667 0.470972 O
  atom_frac 0.101850 0.750000 0.490324 O
  atom_frac 0.166664 0.666667 0.490324 Ti
  atom_frac 0.333331 0.750000 0.490324 Ti
  atom_frac 0.231478 0.750000 0.490324 O
  atom_frac 0.333332 0.666667 0.509676 O
  atom_frac 0.166662 0.666667 0.520736 O
  atom_frac 0.268516 0.750000 0.540088 O
  atom_frac 0.333330 0.666667 0.540088 Ti
  atom_frac 0.166663 0.750000 0.540088 Ti
  atom_frac 0.064810 0.750000 0.540088 O
  atom_frac 0.166664 0.666667 0.559440 O
  atom_frac 0.333328 0.666667 0.570500 O
  atom_frac 0.101848 0.750000 0.589851 O
  atom_frac 0.166662 0.666667 0.589852 Ti
  atom_frac 0.333329 0.750000 0.589852 Ti
  atom_frac 0.231476 0.750000 0.589852 O
  atom_frac 0.333330 0.666667 0.609204 O
  atom_frac 0.166660 0.666667 0.620264 O
  atom_frac 0.268514 0.750000 0.639615 O
  atom_frac 0.333328 0.666667 0.639616 Ti
  atom_frac 0.166661 0.750000 0.639616 Ti
  atom_frac 0.064809 0.750000 0.639616 O
  atom_frac 0.166662 0.666667 0.658968 O
  atom_frac 0.333331 0.833334 0.371444 O
  atom_frac 0.101852 0.916667 0.390796 O
  atom_frac 0.166666 0.833334 0.390796 Ti
  atom_frac 0.333332 0.916667 0.390796 Ti
  atom_frac 0.231480 0.916667 0.390797 O
  atom_frac 0.000000 0.833334 0.410148 O
  atom_frac 0.166664 0.833334 0.421208 O
  atom_frac 0.268518 0.916667 0.440560 O
  atom_frac 0.333332 0.833334 0.440560 Ti
  atom_frac 0.166665 0.916667 0.440560 Ti
  atom_frac 0.064812 0.916667 0.440561 O
  atom_frac 0.166666 0.833334 0.459912 O
  atom_frac 0.333330 0.833334 0.470972 O
  atom_frac 0.101850 0.916667 0.490324 O
  atom_frac 0.166664 0.833334 0.490324 Ti
  atom_frac 0.333331 0.916667 0.490324 Ti
  atom_frac 0.231478 0.916667 0.490324 O
  atom_frac 0.333332 0.833334 0.509676 O
  atom_frac 0.166662 0.833334 0.520736 O
  atom_frac 0.268516 0.916667 0.540088 O
  atom_frac 0.333330 0.833334 0.540088 Ti
  atom_frac 0.166663 0.916667 0.540088 Ti
  atom_frac 0.064810 0.916667 0.540088 O
  atom_frac 0.166664 0.833334 0.559440 O
  atom_frac 0.333328 0.833334 0.570500 O
  atom_frac 0.101848 0.916667 0.589851 O
  atom_frac 0.166662 0.833334 0.589852 Ti
  atom_frac 0.333329 0.916667 0.589852 Ti
  atom_frac 0.231476 0.916667 0.589852 O
  atom_frac 0.333330 0.833334 0.609204 O
  atom_frac 0.166660 0.833334 0.620264 O
  atom_frac 0.268514 0.916667 0.639615 O
  atom_frac 0.333328 0.833334 0.639616 Ti
  atom_frac 0.166661 0.916667 0.639616 Ti
  atom_frac 0.064809 0.916667 0.639616 O
  atom_frac 0.166662 0.833334 0.658968 O
  atom_frac 0.666665 0.500000 0.371444 O
  atom_frac 0.435185 0.583334 0.390796 O
  atom_frac 0.499999 0.500000 0.390796 Ti
  atom_frac 0.666666 0.583334 0.390796 Ti
  atom_frac 0.564813 0.583334 0.390797 O
  atom_frac 0.333334 0.500000 0.410148 O
  atom_frac 0.499997 0.500000 0.421208 O
  atom_frac 0.601851 0.583334 0.440560 O
  atom_frac 0.666665 0.500000 0.440560 Ti
  atom_frac 0.499998 0.583334 0.440560 Ti
  atom_frac 0.398145 0.583334 0.440561 O
  atom_frac 0.499999 0.500000 0.459912 O
  atom_frac 0.666663 0.500000 0.470972 O
  atom_frac 0.435183 0.583334 0.490324 O
  atom_frac 0.499997 0.500000 0.490324 Ti
  atom_frac 0.666664 0.583334 0.490324 Ti
  atom_frac 0.564811 0.583334 0.490324 O
  atom_frac 0.666665 0.500000 0.509676 O
  atom_frac 0.499995 0.500000 0.520736 F
  atom_frac 0.601849 0.583334 0.540088 O
  atom_frac 0.666663 0.500000 0.540088 Ti
  atom_frac 0.499996 0.583334 0.540088 Ti
  atom_frac 0.398144 0.583334 0.540088 O
  atom_frac 0.499998 0.500000 0.559440 O
  atom_frac 0.666661 0.500000 0.570500 O
  atom_frac 0.435182 0.583334 0.589851 O
  atom_frac 0.499996 0.500000 0.589852 Ti
  atom_frac 0.666662 0.583334 0.589852 Ti
  atom_frac 0.564809 0.583334 0.589852 O
  atom_frac 0.666663 0.500000 0.609204 O
  atom_frac 0.499993 0.500000 0.620264 O
  atom_frac 0.601847 0.583334 0.639615 O
  atom_frac 0.666661 0.500000 0.639616 Ti
  atom_frac 0.499995 0.583334 0.639616 Ti
  atom_frac 0.398142 0.583334 0.639616 O
  atom_frac 0.499996 0.500000 0.658968 O
  atom_frac 0.666665 0.666667 0.371444 O
  atom_frac 0.435185 0.750000 0.390796 O
  atom_frac 0.499999 0.666667 0.390796 Ti
  atom_frac 0.666666 0.750000 0.390796 Ti
  atom_frac 0.564813 0.750000 0.390797 O
  atom_frac 0.333334 0.666667 0.410148 O
  atom_frac 0.499997 0.666667 0.421208 O
  atom_frac 0.601851 0.750000 0.440560 O
  atom_frac 0.666665 0.666667 0.440560 Ti
  atom_frac 0.499998 0.750000 0.440560 Ti
  atom_frac 0.398145 0.750000 0.440561 O
  atom_frac 0.499999 0.666667 0.459912 O
  atom_frac 0.666663 0.666667 0.470972 O
  atom_frac 0.435183 0.750000 0.490324 O
  atom_frac 0.499997 0.666667 0.490324 Ti
  atom_frac 0.666664 0.750000 0.490324 Ti
  atom_frac 0.564811 0.750000 0.490324 O
  atom_frac 0.666665 0.666667 0.509676 O
  atom_frac 0.499995 0.666667 0.520736 O
  atom_frac 0.601849 0.750000 0.540088 O
  atom_frac 0.666663 0.666667 0.540088 Ti
  atom_frac 0.499996 0.750000 0.540088 Ti
  atom_frac 0.398144 0.750000 0.540088 O
  atom_frac 0.499998 0.666667 0.559440 O
  atom_frac 0.666661 0.666667 0.570500 O
  atom_frac 0.435182 0.750000 0.589851 O
  atom_frac 0.499996 0.666667 0.589852 Ti
  atom_frac 0.666662 0.750000 0.589852 Ti
  atom_frac 0.564809 0.750000 0.589852 O
  atom_frac 0.666663 0.666667 0.609204 O
  atom_frac 0.499993 0.666667 0.620264 O
  atom_frac 0.601847 0.750000 0.639615 O
  atom_frac 0.666661 0.666667 0.639616 Ti
  atom_frac 0.499995 0.750000 0.639616 Ti
  atom_frac 0.398142 0.750000 0.639616 O
  atom_frac 0.499996 0.666667 0.658968 O
  atom_frac 0.666665 0.833334 0.371444 O
  atom_frac 0.435185 0.916667 0.390796 O
  atom_frac 0.499999 0.833334 0.390796 Ti
  atom_frac 0.666666 0.916667 0.390796 Ti
  atom_frac 0.564813 0.916667 0.390797 O
  atom_frac 0.333334 0.833334 0.410148 O
  atom_frac 0.499997 0.833334 0.421208 O
  atom_frac 0.601851 0.916667 0.440560 O
  atom_frac 0.666665 0.833334 0.440560 Ti
  atom_frac 0.499998 0.916667 0.440560 Ti
  atom_frac 0.398145 0.916667 0.440561 O
  atom_frac 0.499999 0.833334 0.459912 O
  atom_frac 0.666663 0.833334 0.470972 O
  atom_frac 0.435183 0.916667 0.490324 O
  atom_frac 0.499997 0.833334 0.490324 Ti
  atom_frac 0.666664 0.916667 0.490324 Ti
  atom_frac 0.564811 0.916667 0.490324 O
  atom_frac 0.666665 0.833334 0.509676 O
  atom_frac 0.499995 0.833334 0.520736 O
  atom_frac 0.601849 0.916667 0.540088 O
  atom_frac 0.666663 0.833334 0.540088 Ti
  atom_frac 0.499996 0.916667 0.540088 Ti
  atom_frac 0.398144 0.916667 0.540088 O
  atom_frac 0.499998 0.833334 0.559440 O
  atom_frac 0.666661 0.833334 0.570500 O
  atom_frac 0.435182 0.916667 0.589851 O
  atom_frac 0.499996 0.833334 0.589852 Ti
  atom_frac 0.666662 0.916667 0.589852 Ti
  atom_frac 0.564809 0.916667 0.589852 O
  atom_frac 0.666663 0.833334 0.609204 O
  atom_frac 0.499993 0.833334 0.620264 O
  atom_frac 0.601847 0.916667 0.639615 O
  atom_frac 0.666661 0.833334 0.639616 Ti
  atom_frac 0.499995 0.916667 0.639616 Ti
  atom_frac 0.398142 0.916667 0.639616 O
  atom_frac 0.499996 0.833334 0.658968 O
  atom_frac 0.999998 0.500000 0.371444 O
  atom_frac 0.768519 0.583334 0.390796 O
  atom_frac 0.833332 0.500000 0.390796 Ti
  atom_frac 0.999999 0.583334 0.390796 Ti
  atom_frac 0.898146 0.583334 0.390797 O
  atom_frac 0.666667 0.500000 0.410148 O
  atom_frac 0.833330 0.500000 0.421208 O
  atom_frac 0.935184 0.583334 0.440560 O
  atom_frac 0.999998 0.500000 0.440560 Ti
  atom_frac 0.833332 0.583334 0.440560 Ti
  atom_frac 0.731479 0.583334 0.440561 O
  atom_frac 0.833333 0.500000 0.459912 O
  atom_frac 0.999996 0.500000 0.470972 O
  atom_frac 0.768517 0.583334 0.490324 O
  atom_frac 0.833331 0.500000 0.490324 Ti
  atom_frac 0.999997 0.583334 0.490324 Ti
  atom_frac 0.898145 0.583334 0.490324 O
  atom_frac 0.999998 0.500000 0.509676 O
  atom_frac 0.833329 0.500000 0.520736 O
  atom_frac 0.935183 0.583334 0.540088 O
  atom_frac 0.999996 0.500000 0.540088 Ti
  atom_frac 0.833330 0.583334 0.540088 Ti
  atom_frac 0.731477 0.583334 0.540088 O
  atom_frac 0.833331 0.500000 0.559440 O
  atom_frac 0.999994 0.500000 0.570500 O
  atom_frac 0.768515 0.583334 0.589851 O
  atom_frac 0.833329 0.500000 0.589852 Ti
  atom_frac 0.999996 0.583334 0.589852 Ti
  atom_frac 0.898143 0.583334 0.589852 O
  atom_frac 0.999997 0.500000 0.609204 O
  atom_frac 0.833327 0.500000 0.620264 O
  atom_frac 0.935181 0.583334 0.639615 O
  atom_frac 0.999995 0.500000 0.639616 Ti
  atom_frac 0.833328 0.583334 0.639616 Ti
  atom_frac 0.731475 0.583334 0.639616 O
  atom_frac 0.833329 0.500000 0.658968 O
  atom_frac 0.999998 0.666667 0.371444 O
  atom_frac 0.768519 0.750000 0.390796 O
  atom_frac 0.833332 0.666667 0.390796 Ti
  atom_frac 0.999999 0.750000 0.390796 Ti
  atom_frac 0.898146 0.750000 0.390797 O
  atom_frac 0.666667 0.666667 0.410148 O
  atom_frac 0.833330 0.666667 0.421208 O
  atom_frac 0.935184 0.750000 0.440560 O
  atom_frac 0.999998 0.666667 0.440560 Ti
  atom_frac 0.833332 0.750000 0.440560 Ti
  atom_frac 0.731479 0.750000 0.440561 O
  atom_frac 0.833333 0.666667 0.459912 O
  atom_frac 0.999996 0.666667 0.470972 O
  atom_frac 0.768517 0.750000 0.490324 O
  atom_frac 0.833331 0.666667 0.490324 Ti
  atom_frac 0.999997 0.750000 0.490324 Ti
  atom_frac 0.898145 0.750000 0.490324 O
  atom_frac 0.999998 0.666667 0.509676 O
  atom_frac 0.833329 0.666667 0.520736 O
  atom_frac 0.935183 0.750000 0.540088 O
  atom_frac 0.999996 0.666667 0.540088 Ti
  atom_frac 0.833330 0.750000 0.540088 Ti
  atom_frac 0.731477 0.750000 0.540088 O
  atom_frac 0.833331 0.666667 0.559440 O
  atom_frac 0.999994 0.666667 0.570500 O
  atom_frac 0.768515 0.750000 0.589851 O
  atom_frac 0.833329 0.666667 0.589852 Ti
  atom_frac 0.999996 0.750000 0.589852 Ti
  atom_frac 0.898143 0.750000 0.589852 O
  atom_frac 0.999997 0.666667 0.609204 O
  atom_frac 0.833327 0.666667 0.620264 O
  atom_frac 0.935181 0.750000 0.639615 O
  atom_frac 0.999995 0.666667 0.639616 Ti
  atom_frac 0.833328 0.750000 0.639616 Ti
  atom_frac 0.731475 0.750000 0.639616 O
  atom_frac 0.833329 0.666667 0.658968 O
  atom_frac 0.999998 0.833334 0.371444 O
  atom_frac 0.768519 0.916667 0.390796 O
  atom_frac 0.833332 0.833334 0.390796 Ti
  atom_frac 0.999999 0.916667 0.390796 Ti
  atom_frac 0.898146 0.916667 0.390797 O
  atom_frac 0.666667 0.833334 0.410148 O
  atom_frac 0.833330 0.833334 0.421208 O
  atom_frac 0.935184 0.916667 0.440560 O
  atom_frac 0.999998 0.833334 0.440560 Ti
  atom_frac 0.833332 0.916667 0.440560 Ti
  atom_frac 0.731479 0.916667 0.440561 O
  atom_frac 0.833333 0.833334 0.459912 O
  atom_frac 0.999996 0.833334 0.470972 O
  atom_frac 0.768517 0.916667 0.490324 O
  atom_frac 0.833331 0.833334 0.490324 Ti
  atom_frac 0.999997 0.916667 0.490324 Ti
  atom_frac 0.898145 0.916667 0.490324 O
  atom_frac 0.999998 0.833334 0.509676 O
  atom_frac 0.833329 0.833334 0.520736 O
  atom_frac 0.935183 0.916667 0.540088 O
  atom_frac 0.999996 0.833334 0.540088 Ti
  atom_frac 0.833330 0.916667 0.540088 Ti
  atom_frac 0.731477 0.916667 0.540088 O
  atom_frac 0.833331 0.833334 0.559440 O
  atom_frac 0.999994 0.833334 0.570500 O
  atom_frac 0.768515 0.916667 0.589851 O
  atom_frac 0.833329 0.833334 0.589852 Ti
  atom_frac 0.999996 0.916667 0.589852 Ti
  atom_frac 0.898143 0.916667 0.589852 O
  atom_frac 0.999997 0.833334 0.609204 O
  atom_frac 0.833327 0.833334 0.620264 O
  atom_frac 0.935181 0.916667 0.639615 O
  atom_frac 0.999995 0.833334 0.639616 Ti
  atom_frac 0.833328 0.916667 0.639616 Ti
  atom_frac 0.731475 0.916667 0.639616 O
  atom_frac 0.833329 0.833334 0.658968 O
  
  -----------------------------------------------------------------------
  Completed first pass over input file geometry.in .
  -----------------------------------------------------------------------
  

  Basic array size parameters:
  | Number of species                 :        3
  | Number of atoms                   :      648
  | Number of lattice vectors         :        3
  | Max. basis fn. angular momentum   :        3
  | Max. atomic/ionic basis occupied n:        4
  | Max. number of basis fn. types    :        3
  | Max. radial fns per species/type  :        7
  | Max. logarithmic grid size        :     1383
  | Max. radial integration grid size :       48
  | Max. angular integration grid size:      302
  | Max. angular grid division number :        8
  | Radial grid for Hartree potential :     1383
  | Number of spin channels           :        2

------------------------------------------------------------
          Reading file control.in.
------------------------------------------------------------
  XC: Using PBE gradient-corrected functionals.
  Scalar relativistic treatment of kinetic energy: ZORA.
  Threshold value for ZORA:   0.100000E-11
  Found k-point grid:         3         3         1
  Spin treatment: Spin density functional theory - collinear spins.
  Initial spin moment per atom:   0.0000
  Charged system requested: Charge =   0.100000E+01.
 
  Reading configuration options for species Ti                  .
  | Found nuclear charge :  22.0000
  | Found atomic mass :    47.8670000000000      amu
  | Found l_max for Hartree potential  :   4
  | Found cutoff potl. onset [A], width [A], scale factor :    3.50000    1.50000    1.00000
  | Threshold for basis-dependent cutoff potential is   0.100000E-03
  | Found data for basic radial integration grid :    48 points, outermost radius =    5.000 A
  | Found multiplier for basic radial grid :   1
  | Found angular grid specification: user-specified.
  | Specified grid contains     5 separate shells.
  | Check grid settings after all constraints further below.
  | Found free-atom valence shell :  4 s   2.000
  | Found free-atom valence shell :  3 p   6.000
  | Found free-atom valence shell :  3 d   2.000
  | Found free-ion valence shell :  4 s   1.000
  | Found free-ion valence shell :  3 p   6.000
  | Found free-ion valence shell :  3 d   1.000
  | Found hydrogenic basis function :  4 f   8.000
  | Found hydrogenic basis function :  3 d   2.700
  | Found ionic basis function :  4 p , default cutoff radius.
  | Found ionic basis function :  4 s , default cutoff radius.
 | Encountered keyword species, ending the description of species Ti                  .
  Species Ti                  : Missing cutoff potential type.
  Defaulting to exp(1/x)/(1-x)^2 type cutoff potential.
  Species Ti: No 'logarithmic' tag. Using default grid for free atom:
  | Default logarithmic grid data [bohr] : 0.1000E-03 0.1000E+03 0.1012E+01
  | Will include ionic basis functions of  2.0-fold positive Ti                   ion.
  Species Ti: On-site basis accuracy parameter (for Gram-Schmidt orthonormalisation) not specified.
  Using default value basis_acc =  0.1000000E-03.
  Species Ti                  : Using default innermost maximum threshold i_radial=  2 for radial functions.
  Species Ti                  : Default cutoff onset for free atom density etc. : 0.35000000E+01 AA.
  Species Ti                  : Basic radial grid will be enhanced according to radial_multiplier =   1, to contain    48 grid points.
 
  Reading configuration options for species O                   .
  | Found nuclear charge :   8.0000
  | Found atomic mass :    15.9994000000000      amu
  | Found l_max for Hartree potential  :   4
  | Found cutoff potl. onset [A], width [A], scale factor :    3.50000    1.50000    1.00000
  | Threshold for basis-dependent cutoff potential is   0.100000E-03
  | Found data for basic radial integration grid :    36 points, outermost radius =    5.000 A
  | Found multiplier for basic radial grid :   1
  | Found angular grid specification: user-specified.
  | Specified grid contains     5 separate shells.
  | Check grid settings after all constraints further below.
  | Found free-atom valence shell :  2 s   2.000
  | Found free-atom valence shell :  2 p   4.000
  | Found free-ion valence shell :  2 s   1.000
  | Found free-ion valence shell :  2 p   3.000
  | Found hydrogenic basis function :  2 p   1.800
  | Found hydrogenic basis function :  3 d   7.600
  | Found hydrogenic basis function :  3 s   6.400
 | Encountered keyword species, ending the description of species O                   .
  Species O                   : Missing cutoff potential type.
  Defaulting to exp(1/x)/(1-x)^2 type cutoff potential.
  Species O : No 'logarithmic' tag. Using default grid for free atom:
  | Default logarithmic grid data [bohr] : 0.1000E-03 0.1000E+03 0.1012E+01
  Species O : On-site basis accuracy parameter (for Gram-Schmidt orthonormalisation) not specified.
  Using default value basis_acc =  0.1000000E-03.
  Species O                   : Using default innermost maximum threshold i_radial=  2 for radial functions.
  Species O                   : Default cutoff onset for free atom density etc. : 0.35000000E+01 AA.
  Species O                   : Basic radial grid will be enhanced according to radial_multiplier =   1, to contain    36 grid points.
 
  Reading configuration options for species F                   .
  | Found nuclear charge :   9.0000
  | Found atomic mass :    18.9984032000000      amu
  | Found l_max for Hartree potential  :   4
  | Found cutoff potl. onset [A], width [A], scale factor :    3.50000    1.50000    1.00000
  | Threshold for basis-dependent cutoff potential is   0.100000E-03
  | Found data for basic radial integration grid :    37 points, outermost radius =    5.000 A
  | Found multiplier for basic radial grid :   1
  | Found angular grid specification: user-specified.
  | Specified grid contains     4 separate shells.
  | Check grid settings after all constraints further below.
  | Found free-atom valence shell :  2 s   2.000
  | Found free-atom valence shell :  2 p   5.000
  | Found free-ion valence shell :  2 s   1.000
  | Found free-ion valence shell :  2 p   4.000
  | Found hydrogenic basis function :  2 p   1.700
  | Found hydrogenic basis function :  3 d   7.400
  | Found hydrogenic basis function :  3 s   6.800
  Species F                   : Missing cutoff potential type.
  Defaulting to exp(1/x)/(1-x)^2 type cutoff potential.
  Species F : No 'logarithmic' tag. Using default grid for free atom:
  | Default logarithmic grid data [bohr] : 0.1000E-03 0.1000E+03 0.1012E+01
  Species F : On-site basis accuracy parameter (for Gram-Schmidt orthonormalisation) not specified.
  Using default value basis_acc =  0.1000000E-03.
  Species F                   : Using default innermost maximum threshold i_radial=  2 for radial functions.
  Species F                   : Default cutoff onset for free atom density etc. : 0.35000000E+01 AA.
  Species F                   : Basic radial grid will be enhanced according to radial_multiplier =   1, to contain    37 grid points.
 
  Finished reading input file 'control.in'.
 
------------------------------------------------------------


------------------------------------------------------------
          Reading geometry description geometry.in.
------------------------------------------------------------
  | The smallest distance between any two atoms is         1.95945947 AA.
  | The first atom of this pair is atom number                    290 .
  | The second atom of this pair is atom number                   291 .
  | Wigner-Seitz cell of the first atom image           0     0     0 .
  | (The Wigner-Seitz cell of the second atom is 0 0 0  by definition.)

  Symmetry information by spglib:
  | Precision set to  0.1E-04
  | Number of Operations  : 1
  | Space group           : 1
  | International         : P1      /op
  | Schoenflies           : C1^1
  Input structure read successfully.
  The structure contains      648 atoms,  and a total of       8208.000 electrons.

  Input geometry:
  | Unit cell:
  |       19.69838000        0.00000000        0.00000000
  |        0.00000000       17.83729600        0.00000000
  |        0.00000000        0.00000000       65.97617800
  | Atomic structure:
  |       Atom                x [A]            y [A]            z [A]
  |    1: Species O             6.56608070        0.00000000       24.50645546
  |    2: Species O             2.00631940        1.48645322       25.78322646
  |    3: Species Ti            3.28305020        0.00000000       25.78322646
  |    4: Species Ti            6.56610040        1.48645322       25.78322646
  |    5: Species O             4.55978100        1.48645322       25.78329243
  |    6: Species O             0.00000000        0.00000000       27.05999745
  |    7: Species O             3.28301080        0.00000000       27.78969398
  |    8: Species O             5.28936960        1.48645322       29.06646498
  |    9: Species Ti            6.56610040        0.00000000       29.06646498
  |   10: Species Ti            3.28303050        1.48645322       29.06646498
  |   11: Species O             1.27669140        1.48645322       29.06653096
  |   12: Species O             3.28305020        0.00000000       30.34323598
  |   13: Species O             6.56606101        0.00000000       31.07293251
  |   14: Species O             2.00628000        1.48645322       32.34970350
  |   15: Species Ti            3.28301080        0.00000000       32.34970350
  |   16: Species Ti            6.56608070        1.48645322       32.34970350
  |   17: Species O             4.55974161        1.48645322       32.34970350
  |   18: Species O             6.56610040        0.00000000       33.62647450
  |   19: Species O             3.28297141        0.00000000       34.35617103
  |   20: Species O             5.28933020        1.48645322       35.63294202
  |   21: Species Ti            6.56606101        0.00000000       35.63294202
  |   22: Species Ti            3.28299111        1.48645322       35.63294202
  |   23: Species O             1.27665201        1.48645322       35.63294202
  |   24: Species O             3.28301080        0.00000000       36.90971302
  |   25: Species O             6.56602161        0.00000000       37.63940955
  |   26: Species O             2.00624061        1.48645322       38.91611457
  |   27: Species Ti            3.28297141        0.00000000       38.91618055
  |   28: Species Ti            6.56604131        1.48645322       38.91618055
  |   29: Species O             4.55970221        1.48645322       38.91618055
  |   30: Species O             6.56606101        0.00000000       40.19295154
  |   31: Species O             3.28293201        0.00000000       40.92264807
  |   32: Species O             5.28929081        1.48645322       42.19935309
  |   33: Species Ti            6.56602161        0.00000000       42.19941907
  |   34: Species Ti            3.28295171        1.48645322       42.19941907
  |   35: Species O             1.27663231        1.48645322       42.19941907
  |   36: Species O             3.28297141        0.00000000       43.47619006
  |   37: Species O             6.56608070        2.97288861       24.50645546
  |   38: Species O             2.00631940        4.45932400       25.78322646
  |   39: Species Ti            3.28305020        2.97288861       25.78322646
  |   40: Species Ti            6.56610040        4.45932400       25.78322646
  |   41: Species O             4.55978100        4.45932400       25.78329243
  |   42: Species O             0.00000000        2.97288861       27.05999745
  |   43: Species O             3.28301080        2.97288861       27.78969398
  |   44: Species O             5.28936960        4.45932400       29.06646498
  |   45: Species Ti            6.56610040        2.97288861       29.06646498
  |   46: Species Ti            3.28303050        4.45932400       29.06646498
  |   47: Species O             1.27669140        4.45932400       29.06653096
  |   48: Species O             3.28305020        2.97288861       30.34323598
  |   49: Species O             6.56606101        2.97288861       31.07293251
  |   50: Species O             2.00628000        4.45932400       32.34970350
  |   51: Species Ti            3.28301080        2.97288861       32.34970350
  |   52: Species Ti            6.56608070        4.45932400       32.34970350
  |   53: Species O             4.55974161        4.45932400       32.34970350
  |   54: Species O             6.56610040        2.97288861       33.62647450
  |   55: Species O             3.28297141        2.97288861       34.35617103
  |   56: Species O             5.28933020        4.45932400       35.63294202
  |   57: Species Ti            6.56606101        2.97288861       35.63294202
  |   58: Species Ti            3.28299111        4.45932400       35.63294202
  |   59: Species O             1.27665201        4.45932400       35.63294202
  |   60: Species O             3.28301080        2.97288861       36.90971302
  |   61: Species O             6.56602161        2.97288861       37.63940955
  |   62: Species O             2.00624061        4.45932400       38.91611457
  |   63: Species Ti            3.28297141        2.97288861       38.91618055
  |   64: Species Ti            6.56604131        4.45932400       38.91618055
  |   65: Species O             4.55970221        4.45932400       38.91618055
  |   66: Species O             6.56606101        2.97288861       40.19295154
  |   67: Species O             3.28293201        2.97288861       40.92264807
  |   68: Species O             5.28929081        4.45932400       42.19935309
  |   69: Species Ti            6.56602161        2.97288861       42.19941907
  |   70: Species Ti            3.28295171        4.45932400       42.19941907
  |   71: Species O             1.27663231        4.45932400       42.19941907
  |   72: Species O             3.28297141        2.97288861       43.47619006
  |   73: Species O             6.56608070        5.94577722       24.50645546
  |   74: Species O             2.00631940        7.43221261       25.78322646
  |   75: Species Ti            3.28305020        5.94577722       25.78322646
  |   76: Species Ti            6.56610040        7.43221261       25.78322646
  |   77: Species O             4.55978100        7.43221261       25.78329243
  |   78: Species O             0.00000000        5.94577722       27.05999745
  |   79: Species O             3.28301080        5.94577722       27.78969398
  |   80: Species O             5.28936960        7.43221261       29.06646498
  |   81: Species Ti            6.56610040        5.94577722       29.06646498
  |   82: Species Ti            3.28303050        7.43221261       29.06646498
  |   83: Species O             1.27669140        7.43221261       29.06653096
  |   84: Species O             3.28305020        5.94577722       30.34323598
  |   85: Species O             6.56606101        5.94577722       31.07293251
  |   86: Species O             2.00628000        7.43221261       32.34970350
  |   87: Species Ti            3.28301080        5.94577722       32.34970350
  |   88: Species Ti            6.56608070        7.43221261       32.34970350
  |   89: Species O             4.55974161        7.43221261       32.34970350
  |   90: Species O             6.56610040        5.94577722       33.62647450
  |   91: Species O             3.28297141        5.94577722       34.35617103
  |   92: Species O             5.28933020        7.43221261       35.63294202
  |   93: Species Ti            6.56606101        5.94577722       35.63294202
  |   94: Species Ti            3.28299111        7.43221261       35.63294202
  |   95: Species O             1.27665201        7.43221261       35.63294202
  |   96: Species O             3.28301080        5.94577722       36.90971302
  |   97: Species O             6.56602161        5.94577722       37.63940955
  |   98: Species O             2.00624061        7.43221261       38.91611457
  |   99: Species Ti            3.28297141        5.94577722       38.91618055
  |  100: Species Ti            6.56604131        7.43221261       38.91618055
  |  101: Species O             4.55970221        7.43221261       38.91618055
  |  102: Species O             6.56606101        5.94577722       40.19295154
  |  103: Species O             3.28293201        5.94577722       40.92264807
  |  104: Species O             5.28929081        7.43221261       42.19935309
  |  105: Species Ti            6.56602161        5.94577722       42.19941907
  |  106: Species Ti            3.28295171        7.43221261       42.19941907
  |  107: Species O             1.27663231        7.43221261       42.19941907
  |  108: Species O             3.28297141        5.94577722       43.47619006
  |  109: Species O            13.13222050        0.00000000       24.50645546
  |  110: Species O             8.57243950        1.48645322       25.78322646
  |  111: Species Ti            9.84917030        0.00000000       25.78322646
  |  112: Species Ti           13.13224020        1.48645322       25.78322646
  |  113: Species O            11.12590110        1.48645322       25.78329243
  |  114: Species O             6.56613980        0.00000000       27.05999745
  |  115: Species O             9.84913090        0.00000000       27.78969398
  |  116: Species O            11.85548970        1.48645322       29.06646498
  |  117: Species Ti           13.13222050        0.00000000       29.06646498
  |  118: Species Ti            9.84915060        1.48645322       29.06646498
  |  119: Species O             7.84281151        1.48645322       29.06653096
  |  120: Species O             9.84917030        0.00000000       30.34323598
  |  121: Species O            13.13218111        0.00000000       31.07293251
  |  122: Species O             8.57240010        1.48645322       32.34970350
  |  123: Species Ti            9.84913090        0.00000000       32.34970350
  |  124: Species Ti           13.13220080        1.48645322       32.34970350
  |  125: Species O            11.12586171        1.48645322       32.34970350
  |  126: Species O            13.13222050        0.00000000       33.62647450
  |  127: Species O             9.84909151        0.00000000       34.35617103
  |  128: Species O            11.85545030        1.48645322       35.63294202
  |  129: Species Ti           13.13218111        0.00000000       35.63294202
  |  130: Species Ti            9.84911121        1.48645322       35.63294202
  |  131: Species O             7.84279181        1.48645322       35.63294202
  |  132: Species O             9.84915060        0.00000000       36.90971302
  |  133: Species O            13.13214171        0.00000000       37.63940955
  |  134: Species O             8.57238041        1.48645322       38.91611457
  |  135: Species Ti            9.84911121        0.00000000       38.91618055
  |  136: Species Ti           13.13216141        1.48645322       38.91618055
  |  137: Species O            11.12582231        1.48645322       38.91618055
  |  138: Species O            13.13218111        0.00000000       40.19295154
  |  139: Species O             9.84905211        0.00000000       40.92264807
  |  140: Species O            11.85541091        1.48645322       42.19935309
  |  141: Species Ti           13.13214171        0.00000000       42.19941907
  |  142: Species Ti            9.84909151        1.48645322       42.19941907
  |  143: Species O             7.84275241        1.48645322       42.19941907
  |  144: Species O             9.84911121        0.00000000       43.47619006
  |  145: Species O            13.13222050        2.97288861       24.50645546
  |  146: Species O             8.57243950        4.45932400       25.78322646
  |  147: Species Ti            9.84917030        2.97288861       25.78322646
  |  148: Species Ti           13.13224020        4.45932400       25.78322646
  |  149: Species O            11.12590110        4.45932400       25.78329243
  |  150: Species O             6.56613980        2.97288861       27.05999745
  |  151: Species O             9.84913090        2.97288861       27.78969398
  |  152: Species O            11.85548970        4.45932400       29.06646498
  |  153: Species Ti           13.13222050        2.97288861       29.06646498
  |  154: Species Ti            9.84915060        4.45932400       29.06646498
  |  155: Species O             7.84281151        4.45932400       29.06653096
  |  156: Species O             9.84917030        2.97288861       30.34323598
  |  157: Species O            13.13218111        2.97288861       31.07293251
  |  158: Species O             8.57240010        4.45932400       32.34970350
  |  159: Species Ti            9.84913090        2.97288861       32.34970350
  |  160: Species Ti           13.13220080        4.45932400       32.34970350
  |  161: Species O            11.12586171        4.45932400       32.34970350
  |  162: Species O            13.13222050        2.97288861       33.62647450
  |  163: Species O             9.84909151        2.97288861       34.35617103
  |  164: Species O            11.85545030        4.45932400       35.63294202
  |  165: Species Ti           13.13218111        2.97288861       35.63294202
  |  166: Species Ti            9.84911121        4.45932400       35.63294202
  |  167: Species O             7.84279181        4.45932400       35.63294202
  |  168: Species O             9.84915060        2.97288861       36.90971302
  |  169: Species O            13.13214171        2.97288861       37.63940955
  |  170: Species O             8.57238041        4.45932400       38.91611457
  |  171: Species Ti            9.84911121        2.97288861       38.91618055
  |  172: Species Ti           13.13216141        4.45932400       38.91618055
  |  173: Species O            11.12582231        4.45932400       38.91618055
  |  174: Species O            13.13218111        2.97288861       40.19295154
  |  175: Species O             9.84905211        2.97288861       40.92264807
  |  176: Species O            11.85541091        4.45932400       42.19935309
  |  177: Species Ti           13.13214171        2.97288861       42.19941907
  |  178: Species Ti            9.84909151        4.45932400       42.19941907
  |  179: Species O             7.84275241        4.45932400       42.19941907
  |  180: Species O             9.84911121        2.97288861       43.47619006
  |  181: Species O            13.13222050        5.94577722       24.50645546
  |  182: Species O             8.57243950        7.43221261       25.78322646
  |  183: Species Ti            9.84917030        5.94577722       25.78322646
  |  184: Species Ti           13.13224020        7.43221261       25.78322646
  |  185: Species O            11.12590110        7.43221261       25.78329243
  |  186: Species O             6.56613980        5.94577722       27.05999745
  |  187: Species O             9.84913090        5.94577722       27.78969398
  |  188: Species O            11.85548970        7.43221261       29.06646498
  |  189: Species Ti           13.13222050        5.94577722       29.06646498
  |  190: Species Ti            9.84915060        7.43221261       29.06646498
  |  191: Species O             7.84281151        7.43221261       29.06653096
  |  192: Species O             9.84917030        5.94577722       30.34323598
  |  193: Species O            13.13218111        5.94577722       31.07293251
  |  194: Species O             8.57240010        7.43221261       32.34970350
  |  195: Species Ti            9.84913090        5.94577722       32.34970350
  |  196: Species Ti           13.13220080        7.43221261       32.34970350
  |  197: Species O            11.12586171        7.43221261       32.34970350
  |  198: Species O            13.13222050        5.94577722       33.62647450
  |  199: Species O             9.84909151        5.94577722       34.35617103
  |  200: Species O            11.85545030        7.43221261       35.63294202
  |  201: Species Ti           13.13218111        5.94577722       35.63294202
  |  202: Species Ti            9.84911121        7.43221261       35.63294202
  |  203: Species O             7.84279181        7.43221261       35.63294202
  |  204: Species O             9.84915060        5.94577722       36.90971302
  |  205: Species O            13.13214171        5.94577722       37.63940955
  |  206: Species O             8.57238041        7.43221261       38.91611457
  |  207: Species Ti            9.84911121        5.94577722       38.91618055
  |  208: Species Ti           13.13216141        7.43221261       38.91618055
  |  209: Species O            11.12582231        7.43221261       38.91618055
  |  210: Species O            13.13218111        5.94577722       40.19295154
  |  211: Species O             9.84905211        5.94577722       40.92264807
  |  212: Species O            11.85541091        7.43221261       42.19935309
  |  213: Species Ti           13.13214171        5.94577722       42.19941907
  |  214: Species Ti            9.84909151        7.43221261       42.19941907
  |  215: Species O             7.84275241        7.43221261       42.19941907
  |  216: Species O             9.84911121        5.94577722       43.47619006
  |  217: Species O            19.69834060        0.00000000       24.50645546
  |  218: Species O            15.13857930        1.48645322       25.78322646
  |  219: Species Ti           16.41529040        0.00000000       25.78322646
  |  220: Species Ti           19.69836030        1.48645322       25.78322646
  |  221: Species O            17.69202120        1.48645322       25.78329243
  |  222: Species O            13.13225990        0.00000000       27.05999745
  |  223: Species O            16.41525101        0.00000000       27.78969398
  |  224: Species O            18.42160980        1.48645322       29.06646498
  |  225: Species Ti           19.69834060        0.00000000       29.06646498
  |  226: Species Ti           16.41529040        1.48645322       29.06646498
  |  227: Species O            14.40895130        1.48645322       29.06653096
  |  228: Species O            16.41531010        0.00000000       30.34323598
  |  229: Species O            19.69830121        0.00000000       31.07293251
  |  230: Species O            15.13853990        1.48645322       32.34970350
  |  231: Species Ti           16.41527070        0.00000000       32.34970350
  |  232: Species Ti           19.69832090        1.48645322       32.34970350
  |  233: Species O            17.69200151        1.48645322       32.34970350
  |  234: Species O            19.69834060        0.00000000       33.62647450
  |  235: Species O            16.41523131        0.00000000       34.35617103
  |  236: Species O            18.42159010        1.48645322       35.63294202
  |  237: Species Ti           19.69830121        0.00000000       35.63294202
  |  238: Species Ti           16.41525101        1.48645322       35.63294202
  |  239: Species O            14.40891191        1.48645322       35.63294202
  |  240: Species O            16.41527070        0.00000000       36.90971302
  |  241: Species O            19.69826181        0.00000000       37.63940955
  |  242: Species O            15.13850051        1.48645322       38.91611457
  |  243: Species Ti           16.41523131        0.00000000       38.91618055
  |  244: Species Ti           19.69830121        1.48645322       38.91618055
  |  245: Species O            17.69196211        1.48645322       38.91618055
  |  246: Species O            19.69832090        0.00000000       40.19295154
  |  247: Species O            16.41519191        0.00000000       40.92264807
  |  248: Species O            18.42155071        1.48645322       42.19935309
  |  249: Species Ti           19.69828151        0.00000000       42.19941907
  |  250: Species Ti           16.41521161        1.48645322       42.19941907
  |  251: Species O            14.40887251        1.48645322       42.19941907
  |  252: Species O            16.41523131        0.00000000       43.47619006
  |  253: Species O            19.69834060        2.97288861       24.50645546
  |  254: Species O            15.13857930        4.45932400       25.78322646
  |  255: Species Ti           16.41529040        2.97288861       25.78322646
  |  256: Species Ti           19.69836030        4.45932400       25.78322646
  |  257: Species O            17.69202120        4.45932400       25.78329243
  |  258: Species O            13.13225990        2.97288861       27.05999745
  |  259: Species O            16.41525101        2.97288861       27.78969398
  |  260: Species O            18.42160980        4.45932400       29.06646498
  |  261: Species Ti           19.69834060        2.97288861       29.06646498
  |  262: Species Ti           16.41529040        4.45932400       29.06646498
  |  263: Species O            14.40895130        4.45932400       29.06653096
  |  264: Species O            16.41531010        2.97288861       30.34323598
  |  265: Species O            19.69830121        2.97288861       31.07293251
  |  266: Species O            15.13853990        4.45932400       32.34970350
  |  267: Species Ti           16.41527070        2.97288861       32.34970350
  |  268: Species Ti           19.69832090        4.45932400       32.34970350
  |  269: Species O            17.69200151        4.45932400       32.34970350
  |  270: Species O            19.69834060        2.97288861       33.62647450
  |  271: Species O            16.41523131        2.97288861       34.35617103
  |  272: Species O            18.42159010        4.45932400       35.63294202
  |  273: Species Ti           19.69830121        2.97288861       35.63294202
  |  274: Species Ti           16.41525101        4.45932400       35.63294202
  |  275: Species O            14.40891191        4.45932400       35.63294202
  |  276: Species O            16.41527070        2.97288861       36.90971302
  |  277: Species O            19.69826181        2.97288861       37.63940955
  |  278: Species O            15.13850051        4.45932400       38.91611457
  |  279: Species Ti           16.41523131        2.97288861       38.91618055
  |  280: Species Ti           19.69830121        4.45932400       38.91618055
  |  281: Species O            17.69196211        4.45932400       38.91618055
  |  282: Species O            19.69832090        2.97288861       40.19295154
  |  283: Species O            16.41519191        2.97288861       40.92264807
  |  284: Species O            18.42155071        4.45932400       42.19935309
  |  285: Species Ti           19.69828151        2.97288861       42.19941907
  |  286: Species Ti           16.41521161        4.45932400       42.19941907
  |  287: Species O            14.40887251        4.45932400       42.19941907
  |  288: Species O            16.41523131        2.97288861       43.47619006
  |  289: Species O            19.69834060        5.94577722       24.50645546
  |  290: Species O            15.13857930        7.43221261       25.78322646
  |  291: Species Ti           16.41529040        5.94577722       25.78322646
  |  292: Species Ti           19.69836030        7.43221261       25.78322646
  |  293: Species O            17.69202120        7.43221261       25.78329243
  |  294: Species O            13.13225990        5.94577722       27.05999745
  |  295: Species O            16.41525101        5.94577722       27.78969398
  |  296: Species O            18.42160980        7.43221261       29.06646498
  |  297: Species Ti           19.69834060        5.94577722       29.06646498
  |  298: Species Ti           16.41529040        7.43221261       29.06646498
  |  299: Species O            14.40895130        7.43221261       29.06653096
  |  300: Species O            16.41531010        5.94577722       30.34323598
  |  301: Species O            19.69830121        5.94577722       31.07293251
  |  302: Species O            15.13853990        7.43221261       32.34970350
  |  303: Species Ti           16.41527070        5.94577722       32.34970350
  |  304: Species Ti           19.69832090        7.43221261       32.34970350
  |  305: Species O            17.69200151        7.43221261       32.34970350
  |  306: Species O            19.69834060        5.94577722       33.62647450
  |  307: Species O            16.41523131        5.94577722       34.35617103
  |  308: Species O            18.42159010        7.43221261       35.63294202
  |  309: Species Ti           19.69830121        5.94577722       35.63294202
  |  310: Species Ti           16.41525101        7.43221261       35.63294202
  |  311: Species O            14.40891191        7.43221261       35.63294202
  |  312: Species O            16.41527070        5.94577722       36.90971302
  |  313: Species O            19.69826181        5.94577722       37.63940955
  |  314: Species O            15.13850051        7.43221261       38.91611457
  |  315: Species Ti           16.41523131        5.94577722       38.91618055
  |  316: Species Ti           19.69830121        7.43221261       38.91618055
  |  317: Species O            17.69196211        7.43221261       38.91618055
  |  318: Species O            19.69832090        5.94577722       40.19295154
  |  319: Species O            16.41519191        5.94577722       40.92264807
  |  320: Species O            18.42155071        7.43221261       42.19935309
  |  321: Species Ti           19.69828151        5.94577722       42.19941907
  |  322: Species Ti           16.41521161        7.43221261       42.19941907
  |  323: Species O            14.40887251        7.43221261       42.19941907
  |  324: Species O            16.41523131        5.94577722       43.47619006
  |  325: Species O             6.56608070        8.91864800       24.50645546
  |  326: Species O             2.00631940       10.40510122       25.78322646
  |  327: Species Ti            3.28305020        8.91864800       25.78322646
  |  328: Species Ti            6.56610040       10.40510122       25.78322646
  |  329: Species O             4.55978100       10.40510122       25.78329243
  |  330: Species O             0.00000000        8.91864800       27.05999745
  |  331: Species O             3.28301080        8.91864800       27.78969398
  |  332: Species O             5.28936960       10.40510122       29.06646498
  |  333: Species Ti            6.56610040        8.91864800       29.06646498
  |  334: Species Ti            3.28303050       10.40510122       29.06646498
  |  335: Species O             1.27669140       10.40510122       29.06653096
  |  336: Species O             3.28305020        8.91864800       30.34323598
  |  337: Species O             6.56606101        8.91864800       31.07293251
  |  338: Species O             2.00628000       10.40510122       32.34970350
  |  339: Species Ti            3.28301080        8.91864800       32.34970350
  |  340: Species Ti            6.56608070       10.40510122       32.34970350
  |  341: Species O             4.55974161       10.40510122       32.34970350
  |  342: Species O             6.56610040        8.91864800       33.62647450
  |  343: Species O             3.28297141        8.91864800       34.35617103
  |  344: Species O             5.28933020       10.40510122       35.63294202
  |  345: Species Ti            6.56606101        8.91864800       35.63294202
  |  346: Species Ti            3.28299111       10.40510122       35.63294202
  |  347: Species O             1.27665201       10.40510122       35.63294202
  |  348: Species O             3.28301080        8.91864800       36.90971302
  |  349: Species O             6.56602161        8.91864800       37.63940955
  |  350: Species O             2.00624061       10.40510122       38.91611457
  |  351: Species Ti            3.28297141        8.91864800       38.91618055
  |  352: Species Ti            6.56604131       10.40510122       38.91618055
  |  353: Species O             4.55970221       10.40510122       38.91618055
  |  354: Species O             6.56606101        8.91864800       40.19295154
  |  355: Species O             3.28293201        8.91864800       40.92264807
  |  356: Species O             5.28929081       10.40510122       42.19935309
  |  357: Species Ti            6.56602161        8.91864800       42.19941907
  |  358: Species Ti            3.28295171       10.40510122       42.19941907
  |  359: Species O             1.27663231       10.40510122       42.19941907
  |  360: Species O             3.28297141        8.91864800       43.47619006
  |  361: Species O             6.56608070       11.89153661       24.50645546
  |  362: Species O             2.00631940       13.37797200       25.78322646
  |  363: Species Ti            3.28305020       11.89153661       25.78322646
  |  364: Species Ti            6.56610040       13.37797200       25.78322646
  |  365: Species O             4.55978100       13.37797200       25.78329243
  |  366: Species O             0.00000000       11.89153661       27.05999745
  |  367: Species O             3.28301080       11.89153661       27.78969398
  |  368: Species O             5.28936960       13.37797200       29.06646498
  |  369: Species Ti            6.56610040       11.89153661       29.06646498
  |  370: Species Ti            3.28303050       13.37797200       29.06646498
  |  371: Species O             1.27669140       13.37797200       29.06653096
  |  372: Species O             3.28305020       11.89153661       30.34323598
  |  373: Species O             6.56606101       11.89153661       31.07293251
  |  374: Species O             2.00628000       13.37797200       32.34970350
  |  375: Species Ti            3.28301080       11.89153661       32.34970350
  |  376: Species Ti            6.56608070       13.37797200       32.34970350
  |  377: Species O             4.55974161       13.37797200       32.34970350
  |  378: Species O             6.56610040       11.89153661       33.62647450
  |  379: Species O             3.28297141       11.89153661       34.35617103
  |  380: Species O             5.28933020       13.37797200       35.63294202
  |  381: Species Ti            6.56606101       11.89153661       35.63294202
  |  382: Species Ti            3.28299111       13.37797200       35.63294202
  |  383: Species O             1.27665201       13.37797200       35.63294202
  |  384: Species O             3.28301080       11.89153661       36.90971302
  |  385: Species O             6.56602161       11.89153661       37.63940955
  |  386: Species O             2.00624061       13.37797200       38.91611457
[...]
   6437       0.00000           0.478484           13.02022
   6438       0.00000           0.478498           13.02058
   6439       0.00000           0.478676           13.02544
   6440       0.00000           0.478881           13.03101
   6441       0.00000           0.479132           13.03784
   6442       0.00000           0.479361           13.04409
   6443       0.00000           0.479813           13.05638
   6444       0.00000           0.479859           13.05762
   6445       0.00000           0.479896           13.05864
   6446       0.00000           0.479971           13.06067
   6447       0.00000           0.480342           13.07078
   6448       0.00000           0.481768           13.10958
   6449       0.00000           0.482510           13.12975
   6450       0.00000           0.485573           13.21313
   6451       0.00000           0.486011           13.22502
   6452       0.00000           0.486235           13.23113
   6453       0.00000           0.486396           13.23552
   6454       0.00000           0.486416           13.23606
   6455       0.00000           0.486447           13.23690
   6456       0.00000           0.486541           13.23945
   6457       0.00000           0.486742           13.24491
   6458       0.00000           0.486839           13.24755
   6459       0.00000           0.488189           13.28430
   6460       0.00000           0.488319           13.28784
   6461       0.00000           0.488818           13.30141
   6462       0.00000           0.489912           13.33118
   6463       0.00000           0.490188           13.33871
   6464       0.00000           0.490623           13.35052
   6465       0.00000           0.490636           13.35089
   6466       0.00000           0.490886           13.35768
   6467       0.00000           0.490911           13.35836
   6468       0.00000           0.491296           13.36886
   6469       0.00000           0.491483           13.37395
   6470       0.00000           0.491529           13.37519
   6471       0.00000           0.491659           13.37873
   6472       0.00000           0.491744           13.38102
   6473       0.00000           0.492076           13.39007
   6474       0.00000           0.492542           13.40275
   6475       0.00000           0.492607           13.40453
   6476       0.00000           0.492923           13.41313
   6477       0.00000           0.492976           13.41457
   6478       0.00000           0.493048           13.41651
   6479       0.00000           0.493230           13.42146
   6480       0.00000           0.494016           13.44286
   6481       0.00000           0.494155           13.44665
   6482       0.00000           0.494266           13.44966
   6483       0.00000           0.494345           13.45180
   6484       0.00000           0.494541           13.45713
   6485       0.00000           0.494978           13.46904
   6486       0.00000           0.495481           13.48272
   6487       0.00000           0.495553           13.48469
   6488       0.00000           0.495571           13.48517
   6489       0.00000           0.495868           13.49325
   6490       0.00000           0.495962           13.49582
   6491       0.00000           0.495997           13.49678
   6492       0.00000           0.497997           13.55118
   6493       0.00000           0.498056           13.55280
   6494       0.00000           0.498080           13.55344
   6495       0.00000           0.498094           13.55383
   6496       0.00000           0.499509           13.59234
   6497       0.00000           0.499533           13.59300
   6498       0.00000           0.500167           13.61024
   6499       0.00000           0.500215           13.61153
   6500       0.00000           0.500781           13.62695
   6501       0.00000           0.500988           13.63259
   6502       0.00000           0.501143           13.63678
   6503       0.00000           0.502781           13.68138
   6504       0.00000           0.503389           13.69790
   6505       0.00000           0.506052           13.77037
   6506       0.00000           0.507198           13.80157
   6507       0.00000           0.508507           13.83718
   6508       0.00000           0.510423           13.88933
   6509       0.00000           0.511001           13.90505
   6510       0.00000           0.511230           13.91127
   6511       0.00000           0.511308           13.91340
   6512       0.00000           0.512702           13.95134
   6513       0.00000           0.512759           13.95288
   6514       0.00000           0.513407           13.97050
   6515       0.00000           0.513524           13.97369
   6516       0.00000           0.513906           13.98409
   6517       0.00000           0.514200           13.99211
   6518       0.00000           0.514546           14.00151
   6519       0.00000           0.514874           14.01043
   6520       0.00000           0.515122           14.01719
   6521       0.00000           0.515342           14.02317
   6522       0.00000           0.515494           14.02730
   6523       0.00000           0.515631           14.03104
   6524       0.00000           0.515897           14.03828
   6525       0.00000           0.516131           14.04464
   6526       0.00000           0.516830           14.06365
   6527       0.00000           0.517534           14.08281
   6528       0.00000           0.517612           14.08494
   6529       0.00000           0.518030           14.09632
   6530       0.00000           0.518034           14.09641
   6531       0.00000           0.520045           14.15114
   6532       0.00000           0.520288           14.15776
   6533       0.00000           0.522245           14.21101
   6534       0.00000           0.523538           14.24620
   6535       0.00000           0.523711           14.25090
   6536       0.00000           0.523994           14.25860
   6537       0.00000           0.524352           14.26834
   6538       0.00000           0.524408           14.26986
   6539       0.00000           0.524812           14.28086
   6540       0.00000           0.524822           14.28113
   6541       0.00000           0.525173           14.29070
   6542       0.00000           0.527246           14.34710
   6543       0.00000           0.530604           14.43847
   6544       0.00000           0.531254           14.45615
   6545       0.00000           0.532881           14.50044
   6546       0.00000           0.532997           14.50359
   6547       0.00000           0.533282           14.51135
   6548       0.00000           0.533430           14.51536
   6549       0.00000           0.533675           14.52203
   6550       0.00000           0.533843           14.52661
   6551       0.00000           0.533845           14.52665
   6552       0.00000           0.537422           14.62399
   6553       0.00000           0.537501           14.62615
   6554       0.00000           0.537587           14.62849
   6555       0.00000           0.537709           14.63181
   6556       0.00000           0.539649           14.68459
   6557       0.00000           0.540726           14.71390
   6558       0.00000           0.540907           14.71882
   6559       0.00000           0.540947           14.71992
   6560       0.00000           0.541136           14.72505
   6561       0.00000           0.541600           14.73769
   6562       0.00000           0.541817           14.74360
   6563       0.00000           0.541823           14.74375
   6564       0.00000           0.542078           14.75069
   6565       0.00000           0.542136           14.75228
   6566       0.00000           0.542203           14.75409
   6567       0.00000           0.542320           14.75728
   6568       0.00000           0.542624           14.76555
   6569       0.00000           0.542688           14.76729
   6570       0.00000           0.542859           14.77195
   6571       0.00000           0.542943           14.77422
   6572       0.00000           0.545218           14.83613
   6573       0.00000           0.545354           14.83984
   6574       0.00000           0.546787           14.87884
   6575       0.00000           0.547304           14.89289
   6576       0.00000           0.547311           14.89310
   6577       0.00000           0.547330           14.89359
   6578       0.00000           0.547341           14.89391
   6579       0.00000           0.547411           14.89580
   6580       0.00000           0.548097           14.91448
   6581       0.00000           0.548743           14.93207
   6582       0.00000           0.549023           14.93969
   6583       0.00000           0.549738           14.95913
   6584       0.00000           0.550096           14.96887
   6585       0.00000           0.552277           15.02823
   6586       0.00000           0.552311           15.02914
   6587       0.00000           0.555105           15.10517
   6588       0.00000           0.555255           15.10924

  Current spin moment of the entire structure :
  | N = N_up - N_down (sum over all k points):         0.00000
  | S (sum over all k points)                :         0.00000

  What follows are estimated values for band gap, HOMO, LUMO, etc.
  | They are estimated on a discrete k-point grid and not necessarily exact.
  | For converged numbers, create a DOS and/or band structure plot on a denser k-grid.

  Highest occupied state (VBM) at     -8.57972203 eV (relative to internal zero)
  | Occupation number:      1.00000000
  | K-point:       2 at    0.000000    0.333333    0.000000 (in units of recip. lattice)
  | Spin channel:        1

  Lowest unoccupied state (CBM) at    -7.41536684 eV (relative to internal zero)
  | Occupation number:      0.00000000
  | K-point:       1 at    0.000000    0.000000    0.000000 (in units of recip. lattice)
  | Spin channel:        2

  ESTIMATED overall HOMO-LUMO gap:      1.16435519 eV between HOMO at k-point 2 and LUMO at k-point 1
  | This appears to be an indirect band gap.
  | Smallest direct gap :      1.17371645 eV for k_point 1 at    0.000000    0.000000    0.000000 (in units of recip. lattice)
  | Direct gap HOMO spin channel :     1
  | Direct gap LUMO spin channel :     2
  The gap value is above 0.2 eV. Unless you are using a very sparse k-point grid,
  this system is most likely an insulator or a semiconductor.

  Total energy components:
  | Sum of eigenvalues            :     -128500.63746582 Ha    -3496680.25457752 eV
  | XC energy correction          :      -12809.67860683 Ha     -348569.08989185 eV
  | XC potential correction       :       16562.01510040 Ha      450675.36099184 eV
  | Free-atom electrostatic energy:      -92388.71593748 Ha    -2514024.87283601 eV
  | Hartree energy correction     :         145.92079755 Ha        3970.70692860 eV
  | Entropy correction            :          -0.00000000 Ha          -0.00000000 eV
  | ---------------------------
  | Total energy                  :     -216991.09611218 Ha    -5904628.14938495 eV
  | Total energy, T -> 0          :     -216991.09611218 Ha    -5904628.14938495 eV  <-- do not rely on this value for anything but (periodic) metals
  | Electronic free energy        :     -216991.09611218 Ha    -5904628.14938495 eV

  Derived energy quantities:
  | Kinetic energy                :      219536.13412081 Ha     5973882.15720482 eV
  | Electrostatic energy          :     -423717.55162616 Ha   -11529941.21669791 eV
  | Energy correction for multipole
  | error in Hartree potential    :           2.05884291 Ha          56.02396599 eV
  | Sum of eigenvalues per atom                           :       -5396.11150398 eV
  | Total energy (T->0) per atom                          :       -9112.08047745 eV  <-- do not rely on this value for anything but (periodic) metals
  | Electronic free energy per atom                       :       -9112.08047745 eV
  End evaluation of scaled ZORA corrections.
  | Time for scaled ZORA corrections            :      158.920 s         158.930 s
------------------------------------------------------------

  Energy and forces in a compact form:
  | Total energy uncorrected      :         -0.590462814938495E+07 eV
  | Total energy corrected        :         -0.590462814938495E+07 eV  <-- do not rely on this value for anything but (periodic) metals
  | Electronic free energy        :         -0.590462814938495E+07 eV

  ------------------------------------ 
  Start decomposition of the XC Energy 
  ------------------------------------ 
  X and C from original XC functional choice 
  Hartree-Fock Energy :          0.000000000 Ha              0.000000000 eV
  X Energy            :     -12485.304925902 Ha        -339742.432938475 eV
  C Energy            :       -324.373680927 Ha          -8826.656953374 eV
  XC Energy w/o HF    :     -12809.678606829 Ha        -348569.089891850 eV
  Total XC Energy     :     -12809.678606829 Ha        -348569.089891850 eV
  ------------------------------------ 
  LDA X and C from self-consistent density 
  X Energy LDA        :     -11589.065910497 Ha        -315354.528486385 eV
  C Energy LDA        :       -633.839361468 Ha         -17247.646576144 eV
  ------------------------------------ 
  End decomposition of the XC Energy 
  ------------------------------------ 

------------------------------------------------------------

------------------------------------------------------------------------------
  Final output of selected total energy values:

  The following output summarizes some interesting total energy values
  at the end of a run (AFTER all relaxation, molecular dynamics, etc.).

  | Total energy of the DFT / Hartree-Fock s.c.f. calculation      :       -5904628.149384946 eV
  | Final zero-broadening corrected energy (caution - metals only) :       -5904628.149384946 eV
  | For reference only, the value of 1 Hartree used in FHI-aims is :             27.211384500 eV
  | For reference only, the overall average (free atom contribution
  | + realspace contribution) of the electrostatic potential after
  | s.c.f. convergence is                                          :             -5.090454893 eV

  Before relying on these values, please be sure to understand exactly which
  total energy value is referred to by a given number. Different objects may
  all carry the same name 'total energy'. Definitions:

  Total energy of the DFT / Hartree-Fock s.c.f. calculation:
  | Note that this energy does not include ANY quantities calculated after the
  | s.c.f. cycle, in particular not ANY RPA, MP2, etc. many-body perturbation terms.
  | Scalar relativistic effects have been included in the 'scaled ZORA' approximation.

  Final zero-broadening corrected energy:
  | For metallic systems only, a broadening of the occupation numbers at the Fermi
  | level can be extrapolated back to zero broadening by an electron-gas inspired
  | formula. For all systems that are not real metals, this value can be
  | meaningless and should be avoided.

------------------------------------------------------------------------------
  Methods described in the following list of references were used in this FHI-aims run.
  If you publish the results, please make sure to cite these reference if they apply.
  FHI-aims is an academic code, and for our developers (often, Ph.D. students
  and postdocs), scientific credit in the community is essential.
  Thank you for helping us!

  For any use of FHI-aims, please cite:

    Volker Blum, Ralf Gehrke, Felix Hanke, Paula Havu, Ville Havu,
    Xinguo Ren, Karsten Reuter, and Matthias Scheffler
    'Ab initio molecular simulations with numeric atom-centered orbitals'
    Computer Physics Communications 180, 2175-2196 (2009)
    http://doi.org/10.1016/j.cpc.2009.06.022


  The provided symmetry information was generated with SPGlib:

    Atsushi Togo, Yusuke Seto, Dimitar Pashov
    SPGlib 1.7.3 obtained from http://spglib.sourceforge.net
    Licence: New BSD license
    Copyright (C) 2008 Atsushi Togo


  The ELSI infrastructure was used in your run to solve the Kohn-Sham electronic structure.
  Please check out https://wordpress.elsi-interchange.org to learn more.
  If scalability is important for your project, please acknowledge ELSI by citing:

    V. W-z. Yu, F. Corsetti, A. Garcia, W. P. Huhn, M. Jacquelin, W. Jia,
    B. Lange, L. Lin, J. Lu, W. Mi, A. Seifitokaldani, A. Vazquez-Mayagoitia,
    C. Yang, H. Yang, and V. Blum
    'ELSI: A unified software interface for Kohn-Sham electronic structure solvers'
    Computer Physics Communications 222, 267-285 (2018).
    http://doi.org/10.1016/j.cpc.2017.09.007


  For the real-space grid partitioning and parallelization used in this calculation, please cite:

    Ville Havu, Volker Blum, Paula Havu, and Matthias Scheffler,
    'Efficient O(N) integration for all-electron electronic structure calculation'
    'using numerically tabulated basis functions'
    Journal of Computational Physics 228, 8367-8379 (2009).
    http://doi.org/10.1016/j.jcp.2009.08.008

  Of course, there are many other important community references, e.g., those cited in the
  above references. Our list is limited to references that describe implementations in the
  FHI-aims code. The reason is purely practical (length of this list) - please credit others as well.

------------------------------------------------------------
          Leaving FHI-aims.
          Date     :  20250328, Time     :  004224.602

          Computational steps:
          | Number of self-consistency cycles          :           20
          | Number of SCF (re)initializations          :            1

          Detailed time accounting                     :  max(cpu_time)    wall_clock(cpu1)
          | Total time                                  :    19595.556 s       19597.106 s
          | Preparation time                            :        0.446 s           0.444 s
          | Boundary condition initalization            :        0.200 s           0.199 s
          | Grid partitioning                           :       12.141 s          12.142 s
          | Preloading free-atom quantities on grid     :       16.017 s          16.017 s
          | Free-atom superposition energy              :        2.261 s           2.262 s
          | Total time for integrations                 :     1110.548 s        1110.588 s
          | Total time for solution of K.-S. equations  :    13745.112 s       13746.203 s
          | Total time for density update               :     1460.407 s        1460.575 s
          | Total time for mixing & preconditioning     :     2976.032 s        2976.170 s
          | Total time for Hartree multipole update     :        0.596 s           0.595 s
          | Total time for Hartree multipole sum        :      110.654 s         110.658 s
          | Total time for total energy evaluation      :        0.035 s           0.037 s
          | Total time for scaled ZORA corrections      :      158.920 s         158.930 s

          Partial memory accounting:
          | Residual value for overall tracked memory usage across tasks:     0.000000 MB (should be 0.000000 MB)
          | Peak values for overall tracked memory usage:
          |   Minimum:     1978.726 MB (on task 19 after allocating zora_vector2)
          |   Maximum:     2341.139 MB (on task  8 after allocating zora_vector2)
          |   Average:     2184.741 MB
          | Largest tracked array allocation:
          |   Minimum:      703.160 MB (ham_complex on task  6)
          |   Maximum:      828.133 MB (ham_complex on task  7)
          |   Average:      774.429 MB
          Note:  These values currently only include a subset of arrays which are explicitly tracked.
          The "true" memory usage will be greater.

          Have a nice day.
------------------------------------------------------------
