------------------------------------------------------------
          Invoking FHI-aims ...

          When using FHI-aims, please cite the following reference:

            Volker Blum, Ralf Gehrke, Felix Hanke, Paula Havu,
            Ville Havu, Xinguo Ren, Karsten Reuter, and Matthias Scheffler,
            'Ab Initio Molecular Simulations with Numeric Atom-Centered Orbitals',
            Computer Physics Communications 180, 2175-2196 (2009)

          In addition, many other developments in FHI-aims are likely important for
          your particular application. If so, please cite them. A partial list of references
          is written at the end of this file. Thank you for giving credit to the authors
          of these developments.

          For general information about FHI-aims please find us at

            https://fhi-aims.org

          Online tutorials can be found at

            https://fhi-aims-club.gitlab.io/tutorials/tutorials-overview/

          For any questions about FHI-aims, please visit our slack channel at

            https://fhi-aims.slack.com

          and our main development and support site at

            https://aims-git.rz-berlin.mpg.de .

          The latter site, in particular, has a wiki to collect information, as well
          as an issue tracker to log discussions, suggest improvements, and report issues
          or bugs. https://aims-git.rz-berlin.mpg.de is also the main development site
          of the project and all new and updated code versions can be obtained there.
          Please send an email to aims-coordinators@fhi-berlin.mpg.de and we will add
          you to these sites. They are for you and everyone is welcome there.

------------------------------------------------------------



  Date     :  20250120, Time     :  104255.079
  Time zero on CPU 1             :   0.573731000000000E+00  s.
  Internal wall clock time zero  :           506601775.079  s.

  FHI-aims created a unique identifier for this run for later identification
  aims_uuid : BCC1AD46-C9E4-487D-A611-3927358EFA87

  Build configuration of the current instance of FHI-aims
  -------------------------------------------------------
  FHI-aims version      : 240605
  Commit number         : b001b2e18
  CMake host system     : Linux-6.5.0-41-generic
  CMake version         : 3.22.1
  Fortran compiler      : /opt/intel/oneapi/mpi/2021.12/bin/mpiifort (IntelLLVM) version 2024.1.0
  Fortran compiler flags: -fc=ifx -O3 -ip -fp-model precise
  C compiler            : /opt/intel/oneapi/mpi/2021.12/bin/mpiicc (IntelLLVM) version 2024.1.0
  C compiler flags      : -cc=icx -O3 -ip -fp-model precise -std=gnu99
  C++ compiler          : /opt/intel/oneapi/mpi/2021.12/bin/mpiicpc (IntelLLVM) version 2024.1.0
  C++ compiler flags    : -cxx=icpx -O3 -ip -fp-model precise -std=c++11
  HIP compiler          :
  HIP compiler flags    :
  HIP GPU arch          :
  Using MPI
  Using ScaLAPACK
  Using LibXC
  Using i-PI
  Using RLSY
  Linking against: /opt/intel/oneapi/mkl/2024.1/lib/intel64/libmkl_intel_lp64.so
                   /opt/intel/oneapi/mkl/2024.1/lib/intel64/libmkl_sequential.so
                   /opt/intel/oneapi/mkl/2024.1/lib/intel64/libmkl_core.so
                   /opt/intel/oneapi/mkl/2024.1/lib/intel64/libmkl_blacs_intelmpi_lp64.so
                   /opt/intel/oneapi/mkl/2024.1/lib/intel64/libmkl_scalapack_lp64.so
                   /opt/intel/oneapi/mkl/2024.1/lib/intel64/libmkl_core.so

  Using       32 parallel tasks.
  Task        0 on host RSL-arvutus reporting.
  Task        1 on host RSL-arvutus reporting.
  Task        2 on host RSL-arvutus reporting.
  Task        3 on host RSL-arvutus reporting.
  Task        4 on host RSL-arvutus reporting.
  Task        5 on host RSL-arvutus reporting.
  Task        6 on host RSL-arvutus reporting.
  Task        7 on host RSL-arvutus reporting.
  Task        8 on host RSL-arvutus reporting.
  Task        9 on host RSL-arvutus reporting.
  Task       10 on host RSL-arvutus reporting.
  Task       11 on host RSL-arvutus reporting.
  Task       12 on host RSL-arvutus reporting.
  Task       13 on host RSL-arvutus reporting.
  Task       14 on host RSL-arvutus reporting.
  Task       15 on host RSL-arvutus reporting.
  Task       16 on host RSL-arvutus reporting.
  Task       17 on host RSL-arvutus reporting.
  Task       18 on host RSL-arvutus reporting.
  Task       19 on host RSL-arvutus reporting.
  Task       20 on host RSL-arvutus reporting.
  Task       21 on host RSL-arvutus reporting.
  Task       22 on host RSL-arvutus reporting.
  Task       23 on host RSL-arvutus reporting.
  Task       24 on host RSL-arvutus reporting.
  Task       25 on host RSL-arvutus reporting.
  Task       26 on host RSL-arvutus reporting.
  Task       27 on host RSL-arvutus reporting.
  Task       28 on host RSL-arvutus reporting.
  Task       29 on host RSL-arvutus reporting.
  Task       30 on host RSL-arvutus reporting.
  Task       31 on host RSL-arvutus reporting.

  Memory overcommitment is allowed on your operating system.

  Obtaining array dimensions for all initial allocations:
  
  -----------------------------------------------------------------------
  Parsing control.in (first pass over file, find array dimensions only).
  The contents of control.in will be repeated verbatim below
  unless switched off by setting 'verbatim_writeout .false.' .
  in the first line of control.in .
  -----------------------------------------------------------------------
  
    xc              pbe
    relativistic    zora scalar 1.0e-12
    k_grid          8 17 1
  
    charge	  1.0
    output          Mulliken
  
  
  ################################################################################
  #
  #  FHI-aims code project
  #  VB, Fritz-Haber Institut, 2009
  #
  #  Suggested "light" defaults for Ti atom (to be pasted into control.in file)
  #  Be sure to double-check any results obtained with these settings for post-processing,
  #  e.g., with the "tight" defaults and larger basis sets.
  #
  ################################################################################
    species        Ti
  #     global species definitions
      nucleus             22
      mass                47.867
  #
      l_hartree           4
  #
      cut_pot             3.5          1.5  1.0
      basis_dep_cutoff    1e-4
  #
      radial_base         48 5.0
      radial_multiplier   1
      angular_grids       specified
        division   0.5171   50
        division   0.9824  110
        division   1.2917  194
        division   1.4940  302
  #      division   1.6934  434
  #      division   1.8425  590
  #      division   2.1901  770
  #      division   2.2896  974
  #      division   2.8244 1202
  #      outer_grid  974
        outer_grid  302
  ################################################################################
  #
  #  Definition of "minimal" basis
  #
  ################################################################################
  #     valence basis states
      valence      4  s   2.
      valence      3  p   6.
      valence      3  d   2.
  #     ion occupancy
      ion_occ      4  s   1.
      ion_occ      3  p   6.
      ion_occ      3  d   1.
  ################################################################################
  #
  #  Suggested additional basis functions. For production calculations,
  #  uncomment them one after another (the most important basis functions are
  #  listed first).
  #
  #  Constructed for dimers: 1.6 A, 1.85 A, 2.5 A, 3.25 A, 4.25 A
  #
  ################################################################################
  #  "First tier" - improvements: -396.25 meV to -19.41 meV
       hydro 4 f 8
       hydro 3 d 2.7
       ionic 4 p auto
  #     hydro 5 g 11.6
       ionic 4 s auto
  #  "Second tier" - improvements: -16.30 meV to -2.03 meV
  #     hydro 3 d 4.4
  #     hydro 6 h 16
  #     hydro 4 f 9.4
  #     hydro 4 p 4.5
  #     hydro 1 s 0.5
  #  "Third tier" - improvements: -6.28 meV to -0.37 meV
  #     hydro 4 d 6.4
  #     hydro 4 f 10
  #     hydro 5 g 12
  #     hydro 2 p 1.7
  #     hydro 6 h 16.4
  #     hydro 4 s 3.8
  #  Further basis functions: -0.45 meV and smaller improvements
  #     hydro 3 d 8.8
  #     hydro 5 p 18
  #     hydro 4 f 22.4
  #     hydro 5 f 7.2  # -0.16 meV
  #     hydro 3 d 2.1  # -0.11 meV
  #     hydro 5 g 7.4  # -0.09 meV
  
  
  ################################################################################
  #
  #  FHI-aims code project
  #  VB, Fritz-Haber Institut, 2009
  #
  #  Suggested "light" defaults for O atom (to be pasted into control.in file)
  #  Be sure to double-check any results obtained with these settings for post-processing,
  #  e.g., with the "tight" defaults and larger basis sets.
  #
  ################################################################################
    species        O
  #     global species definitions
      nucleus             8
      mass                15.9994
  #
      l_hartree           4
  #
      cut_pot             3.5  1.5  1.0
      basis_dep_cutoff    1e-4
  #
      radial_base         36 5.0
      radial_multiplier   1
       angular_grids specified
        division   0.2659   50
        division   0.4451  110
        division   0.6052  194
        division   0.7543  302
  #      division   0.8014  434
  #      division   0.8507  590
  #      division   0.8762  770
  #      division   0.9023  974
  #      division   1.2339 1202
  #      outer_grid 974
        outer_grid 302
  ################################################################################
  #
  #  Definition of "minimal" basis
  #
  ################################################################################
  #     valence basis states
      valence      2  s   2.
      valence      2  p   4.
  #     ion occupancy
      ion_occ      2  s   1.
      ion_occ      2  p   3.
  ################################################################################
  #
  #  Suggested additional basis functions. For production calculations,
  #  uncomment them one after another (the most important basis functions are
  #  listed first).
  #
  #  Constructed for dimers: 1.0 A, 1.208 A, 1.5 A, 2.0 A, 3.0 A
  #
  ################################################################################
  #  "First tier" - improvements: -699.05 meV to -159.38 meV
       hydro 2 p 1.8
       hydro 3 d 7.6
       hydro 3 s 6.4
  #  "Second tier" - improvements: -49.91 meV to -5.39 meV
  #     hydro 4 f 11.6
  #     hydro 3 p 6.2
  #     hydro 3 d 5.6
  #     hydro 5 g 17.6
  #     hydro 1 s 0.75
  #  "Third tier" - improvements: -2.83 meV to -0.50 meV
  #     ionic 2 p auto
  #     hydro 4 f 10.8
  #     hydro 4 d 4.7
  #     hydro 2 s 6.8
  #  "Fourth tier" - improvements: -0.40 meV to -0.12 meV
  #     hydro 3 p 5
  #     hydro 3 s 3.3
  #     hydro 5 g 15.6
  #     hydro 4 f 17.6
  #     hydro 4 d 14
  # Further basis functions - -0.08 meV and below
  #     hydro 3 s 2.1
  #     hydro 4 d 11.6
  #     hydro 3 p 16
  #     hydro 2 s 17.2
  ################################################################################
  #
  #  FHI-aims code project
  #  VB, Fritz-Haber Institut, 2009
  #
  #  Suggested "light" defaults for F atom (to be pasted into control.in file)
  #  Be sure to double-check any results obtained with these settings for post-processing,
  #  e.g., with the "tight" defaults and larger basis sets.
  #
  ################################################################################
    species        F
  #     global species definitions
      nucleus             9
      mass                18.9984032
  #
      l_hartree           4
  #
      cut_pot             3.5  1.5  1.0
      basis_dep_cutoff    1e-4
  #
      radial_base         37 5.0
      radial_multiplier   1
      angular_grids specified
        division   0.4014  110
        division   0.5291  194
        division   0.6019  302
  #      division   0.6814  434
  #      division   0.7989  590
  #      division   0.8965  770
  #      division   1.3427  974
  #      outer_grid   974
        outer_grid   302
  ################################################################################
  #
  #  Definition of "minimal" basis
  #
  ################################################################################
  #     valence basis states
      valence      2  s   2.
      valence      2  p   5.
  #     ion occupancy
      ion_occ      2  s   1.
      ion_occ      2  p   4.
  ################################################################################
  #
  #  Suggested additional basis functions. For production calculations,
  #  uncomment them one after another (the most important basis functions are
  #  listed first).
  #
  #  Constructed for dimers: 1.2 A, 1.418 A, 1.75 A, 2.25 A, 3.25 A
  #
  ################################################################################
  #  "First tier" - improvements: -149.44 meV to -45.88 meV
       hydro 2 p 1.7
       hydro 3 d 7.4
       hydro 3 s 6.8
  #  "Second tier" - improvements: -12.96 meV to -1.56 meV
  #     hydro 4 f 11.2
  #     ionic 2 p auto
  #     hydro 1 s 0.75
  #     hydro 4 d 8.8
  #     hydro 5 g 16.8
  #  "Third tier" - improvements: -0.58 meV to -0.05 meV
  #     hydro 3 p 6.2
  #     hydro 3 s 3.2
  #     hydro 4 f 9.6
  #     hydro 3 s 19.6
  #     hydro 4 d 8.6
  #     hydro 5 g 14.4
  # Further basis functions: -0.05 meV and below
  #     hydro 3 p 4.2
  
  -----------------------------------------------------------------------
  Completed first pass over input file control.in .
  -----------------------------------------------------------------------
  
  
  -----------------------------------------------------------------------
  Parsing geometry.in (first pass over file, find array dimensions only).
  The contents of geometry.in will be repeated verbatim below
  unless switched off by setting 'verbatim_writeout .false.' .
  in the first line of geometry.in .
  -----------------------------------------------------------------------
  
  lattice_vector 6.566127 0.000000 0.000000
  lattice_vector 0.000000 2.972883 0.000000
  lattice_vector 0.000000 0.000000 22.332457
  
  atom_frac 0.999994 0.000000 0.368597 O
  atom_frac 0.305556 0.500000 0.425767 O
  atom_frac 0.499997 0.000000 0.425768 Ti
  atom_frac 0.999997 0.500000 0.425768 Ti
  atom_frac 0.694439 0.500000 0.425769 O
  atom_frac 0.000001 0.000000 0.482939 O
  atom_frac 0.499991 0.000000 0.515613 F
  atom_frac 0.805553 0.500000 0.572783 O
  atom_frac 0.999995 0.000000 0.572784 Ti
  atom_frac 0.499995 0.500000 0.572784 Ti
  atom_frac 0.194436 0.500000 0.572786 O
  atom_frac 0.499998 0.000000 0.629955 O
  
  -----------------------------------------------------------------------
  Completed first pass over input file geometry.in .
  -----------------------------------------------------------------------
  

  Basic array size parameters:
  | Number of species                 :        3
  | Number of atoms                   :       12
  | Number of lattice vectors         :        3
  | Max. basis fn. angular momentum   :        3
  | Max. atomic/ionic basis occupied n:        4
  | Max. number of basis fn. types    :        3
  | Max. radial fns per species/type  :        7
  | Max. logarithmic grid size        :     1383
  | Max. radial integration grid size :       48
  | Max. angular integration grid size:      302
  | Max. angular grid division number :        8
  | Radial grid for Hartree potential :     1383
  | Number of spin channels           :        1

------------------------------------------------------------
          Reading file control.in.
------------------------------------------------------------
  XC: Using PBE gradient-corrected functionals.
  Scalar relativistic treatment of kinetic energy: ZORA.
  Threshold value for ZORA:   0.100000E-11
  Found k-point grid:         8        17         1
  Charged system requested: Charge =   0.100000E+01.
  Mulliken charge analysis will be performed and summarised to the main output.
  Full Mulliken charge analysis will be written to file 'Mulliken.out'.
 
  Reading configuration options for species Ti                  .
  | Found nuclear charge :  22.0000
  | Found atomic mass :    47.8670000000000      amu
  | Found l_max for Hartree potential  :   4
  | Found cutoff potl. onset [A], width [A], scale factor :    3.50000    1.50000    1.00000
  | Threshold for basis-dependent cutoff potential is   0.100000E-03
  | Found data for basic radial integration grid :    48 points, outermost radius =    5.000 A
  | Found multiplier for basic radial grid :   1
  | Found angular grid specification: user-specified.
  | Specified grid contains     5 separate shells.
  | Check grid settings after all constraints further below.
  | Found free-atom valence shell :  4 s   2.000
  | Found free-atom valence shell :  3 p   6.000
  | Found free-atom valence shell :  3 d   2.000
  | Found free-ion valence shell :  4 s   1.000
  | Found free-ion valence shell :  3 p   6.000
  | Found free-ion valence shell :  3 d   1.000
  | Found hydrogenic basis function :  4 f   8.000
  | Found hydrogenic basis function :  3 d   2.700
  | Found ionic basis function :  4 p , default cutoff radius.
  | Found ionic basis function :  4 s , default cutoff radius.
 | Encountered keyword species, ending the description of species Ti                  .
  Species Ti                  : Missing cutoff potential type.
  Defaulting to exp(1/x)/(1-x)^2 type cutoff potential.
  Species Ti: No 'logarithmic' tag. Using default grid for free atom:
  | Default logarithmic grid data [bohr] : 0.1000E-03 0.1000E+03 0.1012E+01
  | Will include ionic basis functions of  2.0-fold positive Ti                   ion.
  Species Ti: On-site basis accuracy parameter (for Gram-Schmidt orthonormalisation) not specified.
  Using default value basis_acc =  0.1000000E-03.
  Species Ti                  : Using default innermost maximum threshold i_radial=  2 for radial functions.
  Species Ti                  : Default cutoff onset for free atom density etc. : 0.35000000E+01 AA.
  Species Ti                  : Basic radial grid will be enhanced according to radial_multiplier =   1, to contain    48 grid points.
 
  Reading configuration options for species O                   .
  | Found nuclear charge :   8.0000
  | Found atomic mass :    15.9994000000000      amu
  | Found l_max for Hartree potential  :   4
  | Found cutoff potl. onset [A], width [A], scale factor :    3.50000    1.50000    1.00000
  | Threshold for basis-dependent cutoff potential is   0.100000E-03
  | Found data for basic radial integration grid :    36 points, outermost radius =    5.000 A
  | Found multiplier for basic radial grid :   1
  | Found angular grid specification: user-specified.
  | Specified grid contains     5 separate shells.
  | Check grid settings after all constraints further below.
  | Found free-atom valence shell :  2 s   2.000
  | Found free-atom valence shell :  2 p   4.000
  | Found free-ion valence shell :  2 s   1.000
  | Found free-ion valence shell :  2 p   3.000
  | Found hydrogenic basis function :  2 p   1.800
  | Found hydrogenic basis function :  3 d   7.600
  | Found hydrogenic basis function :  3 s   6.400
 | Encountered keyword species, ending the description of species O                   .
  Species O                   : Missing cutoff potential type.
  Defaulting to exp(1/x)/(1-x)^2 type cutoff potential.
  Species O : No 'logarithmic' tag. Using default grid for free atom:
  | Default logarithmic grid data [bohr] : 0.1000E-03 0.1000E+03 0.1012E+01
  Species O : On-site basis accuracy parameter (for Gram-Schmidt orthonormalisation) not specified.
  Using default value basis_acc =  0.1000000E-03.
  Species O                   : Using default innermost maximum threshold i_radial=  2 for radial functions.
  Species O                   : Default cutoff onset for free atom density etc. : 0.35000000E+01 AA.
  Species O                   : Basic radial grid will be enhanced according to radial_multiplier =   1, to contain    36 grid points.
 
  Reading configuration options for species F                   .
  | Found nuclear charge :   9.0000
  | Found atomic mass :    18.9984032000000      amu
  | Found l_max for Hartree potential  :   4
  | Found cutoff potl. onset [A], width [A], scale factor :    3.50000    1.50000    1.00000
  | Threshold for basis-dependent cutoff potential is   0.100000E-03
  | Found data for basic radial integration grid :    37 points, outermost radius =    5.000 A
  | Found multiplier for basic radial grid :   1
  | Found angular grid specification: user-specified.
  | Specified grid contains     4 separate shells.
  | Check grid settings after all constraints further below.
  | Found free-atom valence shell :  2 s   2.000
  | Found free-atom valence shell :  2 p   5.000
  | Found free-ion valence shell :  2 s   1.000
  | Found free-ion valence shell :  2 p   4.000
  | Found hydrogenic basis function :  2 p   1.700
  | Found hydrogenic basis function :  3 d   7.400
  | Found hydrogenic basis function :  3 s   6.800
  Species F                   : Missing cutoff potential type.
  Defaulting to exp(1/x)/(1-x)^2 type cutoff potential.
  Species F : No 'logarithmic' tag. Using default grid for free atom:
  | Default logarithmic grid data [bohr] : 0.1000E-03 0.1000E+03 0.1012E+01
  Species F : On-site basis accuracy parameter (for Gram-Schmidt orthonormalisation) not specified.
  Using default value basis_acc =  0.1000000E-03.
  Species F                   : Using default innermost maximum threshold i_radial=  2 for radial functions.
  Species F                   : Default cutoff onset for free atom density etc. : 0.35000000E+01 AA.
  Species F                   : Basic radial grid will be enhanced according to radial_multiplier =   1, to contain    37 grid points.
 
  Finished reading input file 'control.in'.
 
------------------------------------------------------------


------------------------------------------------------------
          Reading geometry description geometry.in.
------------------------------------------------------------
  | The smallest distance between any two atoms is         1.95947270 AA.
  | The first atom of this pair is atom number                      2 .
  | The second atom of this pair is atom number                     3 .
  | Wigner-Seitz cell of the first atom image           0     0     0 .
  | (The Wigner-Seitz cell of the second atom is 0 0 0  by definition.)

  Symmetry information by spglib:
  | Precision set to  0.1E-04
  | Number of Operations  : 2
  | Space group           : 6
  | International         : Pm      /op
  | Schoenflies           : Cs^1
  Input structure read successfully.
  The structure contains       12 atoms,  and a total of        152.000 electrons.

  Input geometry:
  | Unit cell:
  |        6.56612700        0.00000000        0.00000000
  |        0.00000000        2.97288300        0.00000000
  |        0.00000000        0.00000000       22.33245700
  | Atomic structure:
  |       Atom                x [A]            y [A]            z [A]
  |    1: Species O             6.56608760        0.00000000        8.23167665
  |    2: Species O             2.00631950        1.48644150        9.50842322
  |    3: Species Ti            3.28304380        0.00000000        9.50844555
  |    4: Species Ti            6.56610730        1.48644150        9.50844555
  |    5: Species O             4.55977467        1.48644150        9.50846788
  |    6: Species O             0.00000657        0.00000000       10.78521445
  |    7: Species F             3.28300440        0.00000000       11.51490515
  |    8: Species O             5.28936330        1.48644150       12.79165172
  |    9: Species Ti            6.56609417        0.00000000       12.79167405
  |   10: Species Ti            3.28303067        1.48644150       12.79167405
  |   11: Species O             1.27669147        1.48644150       12.79171872
  |   12: Species O             3.28305037        0.00000000       14.06844295

  Lattice parameters for 3D lattice (in Angstroms) :     6.566127    2.972883   22.332457
  Angle(s) between unit vectors (in degrees)       :    90.000000   90.000000   90.000000


  Quantities derived from the lattice vectors (in Angstrom^-1):
  | Reciprocal lattice vector 1:  0.956909  0.000000  0.000000
  | Reciprocal lattice vector 2:  0.000000  2.113499  0.000000
  | Reciprocal lattice vector 3:  0.000000  0.000000  0.281348
  | Unit cell volume                               :   0.435937E+03  Angstrom^3

  Fractional coordinates:
                         L1                L2                L3
       atom_frac         0.99999400        0.00000000        0.36859700  O
       atom_frac         0.30555600        0.50000000        0.42576700  O
       atom_frac         0.49999700        0.00000000        0.42576800  Ti
       atom_frac         0.99999700        0.50000000        0.42576800  Ti
       atom_frac         0.69443900        0.50000000        0.42576900  O
       atom_frac         0.00000100        0.00000000        0.48293900  O
       atom_frac         0.49999100        0.00000000        0.51561300  F
       atom_frac         0.80555300        0.50000000        0.57278300  O
       atom_frac         0.99999500        0.00000000        0.57278400  Ti
       atom_frac         0.49999500        0.50000000        0.57278400  Ti
       atom_frac         0.19443600        0.50000000        0.57278600  O
       atom_frac         0.49999800        0.00000000        0.62995500  O

  Slab Identifier: This is Z-oriented slab and maximum thickness of the vacuum is: 16.496 Angstrom.
 
  Finished reading input file 'geometry.in'.
 

 
  Consistency checks for stacksize environment parameter are next.
 
  | Maximum stacksize for task 0: unlimited
  | Maximum stacksize for task 1: unlimited
  | Maximum stacksize for task 2: unlimited
  | Maximum stacksize for task 3: unlimited
  | Maximum stacksize for task 4: unlimited
  | Maximum stacksize for task 5: unlimited
  | Maximum stacksize for task 6: unlimited
  | Maximum stacksize for task 7: unlimited
  | Maximum stacksize for task 8: unlimited
  | Maximum stacksize for task 9: unlimited
  | Maximum stacksize for task 10: unlimited
  | Maximum stacksize for task 11: unlimited
  | Maximum stacksize for task 12: unlimited
  | Maximum stacksize for task 13: unlimited
  | Maximum stacksize for task 14: unlimited
  | Maximum stacksize for task 15: unlimited
  | Maximum stacksize for task 16: unlimited
  | Maximum stacksize for task 17: unlimited
  | Maximum stacksize for task 18: unlimited
  | Maximum stacksize for task 19: unlimited
  | Maximum stacksize for task 20: unlimited
  | Maximum stacksize for task 21: unlimited
  | Maximum stacksize for task 22: unlimited
  | Maximum stacksize for task 23: unlimited
  | Maximum stacksize for task 24: unlimited
  | Maximum stacksize for task 25: unlimited
  | Maximum stacksize for task 26: unlimited
  | Maximum stacksize for task 27: unlimited
  | Maximum stacksize for task 28: unlimited
  | Maximum stacksize for task 29: unlimited
  | Maximum stacksize for task 30: unlimited
  | Maximum stacksize for task 31: unlimited
  | Current stacksize for task 0: unlimited
  | Current stacksize for task 1: unlimited
  | Current stacksize for task 2: unlimited
  | Current stacksize for task 3: unlimited
  | Current stacksize for task 4: unlimited
  | Current stacksize for task 5: unlimited
  | Current stacksize for task 6: unlimited
  | Current stacksize for task 7: unlimited
  | Current stacksize for task 8: unlimited
  | Current stacksize for task 9: unlimited
  | Current stacksize for task 10: unlimited
  | Current stacksize for task 11: unlimited
  | Current stacksize for task 12: unlimited
  | Current stacksize for task 13: unlimited
  | Current stacksize for task 14: unlimited
  | Current stacksize for task 15: unlimited
  | Current stacksize for task 16: unlimited
  | Current stacksize for task 17: unlimited
  | Current stacksize for task 18: unlimited
  | Current stacksize for task 19: unlimited
  | Current stacksize for task 20: unlimited
  | Current stacksize for task 21: unlimited
  | Current stacksize for task 22: unlimited
  | Current stacksize for task 23: unlimited
  | Current stacksize for task 24: unlimited
  | Current stacksize for task 25: unlimited
  | Current stacksize for task 26: unlimited
  | Current stacksize for task 27: unlimited
  | Current stacksize for task 28: unlimited
  | Current stacksize for task 29: unlimited
  | Current stacksize for task 30: unlimited
  | Current stacksize for task 31: unlimited
 
  Consistency checks for the contents of control.in are next.
 
  MPI_IN_PLACE appears to work with this MPI implementation.
  | Keeping use_mpi_in_place .true. (see manual).
  Target number of points in a grid batch is not set. Defaulting to  100
  Method for grid partitioning is not set. Defaulting to parallel hash+maxmin partitioning.
  Batch size limit is not set. Defaulting to    200
  By default, will store active basis functions for each batch.
  If in need of memory, prune_basis_once .false. can be used to disable this option.
  communication_type for Hartree potential was not specified.
  Defaulting to calc_hartree .
  Defaulting to Pulay charge density mixer.
  Pulay mixer: Number of relevant iterations not set.
  Defaulting to    8 iterations.
  Pulay mixer: Number of initial linear mixing iterations not set.
  Defaulting to    0 iterations.
  Work space size for distributed Hartree potential not set.
  Defaulting to   0.200000E+03 MB.
  Mixing parameter for charge density mixing has not been set.
  Using default: charge_mix_param =     0.0500.
  The mixing parameter will be adjusted in iteration number     2 of each s.c.f. cycle (i.e., each geometry step).
  Algorithm-dependent basis array size parameters:
  | n_max_pulay                         :        8
  Maximum number of self-consistency iterations not provided.
  Presetting  1000 iterations.
  Presetting      1001 iterations before the initial mixing cycle
  is restarted anyway using the sc_init_iter criterion / keyword.
  Presetting a factor      1.000 between actual scf density residual
  and density convergence criterion sc_accuracy_rho below which sc_init_iter
  takes no effect.
 * No s.c.f. convergence criteria (sc_accuracy_*) were provided in control.in.
 * The run will proceed with a reasonable default guess, but please check whether.
 * the s.c.f. cycles seem to take too much or too little time.
  Calculation of forces was not defined in control.in. No forces will be calculated.
  Geometry relaxation not requested: no relaxation will be performed.
 * Notice: The s.c.f. convergence criterion sc_accuracy_rho was not provided.
 * We used to stop in this case, and ask the user to provide reasonable
 * scf convergence criteria. However, this led some users to employ criteria
 * that led to extremely long run times, e.g., for simple relaxation.
 * We now preset a default value for sc_accuracy_rho if it is not set.
 * You may still wish to check if this setting is too tight or too loose for your needs.
 * Based on n_atoms and forces and force-correction status, FHI-aims chose sc_accuracy_rho =  0.141421E-05 .
  No accuracy limit for integral partition fn. given. Defaulting to  0.1000E-14.
  No threshold value for u(r) in integrations given. Defaulting to  0.1000E-05.
  No occupation type (smearing scheme) given. Defaulting to Gaussian broadening, width =  0.1000E-01 eV.
  The width will be adjusted in iteration number     2 of each s.c.f. cycle (i.e., each geometry step).
  No accuracy for occupation numbers given. Defaulting to  0.1000E-12.
  No threshold value for occupation numbers given. Defaulting to  0.0000E+00.
  No accuracy for fermi level given. Defaulting to  0.1000E-19.
  Maximum # of iterations to find E_F not set. Defaulting to  200.
  Preferred method for the eigenvalue solver ('KS_method') not specified in 'control.in'.
  Defaulting to serial version, LAPACK (via ELSI), since more k-points than CPUs available.
  Will not use alltoall communication since running on < 1024 CPUs.
  Threshold for basis singularities not set.
  Default threshold for basis singularities:  0.1000E-04
  partition_type (choice of integration weights) for integrals was not specified.
  | Using a version of the partition function of Stratmann and coworkers ('stratmann_sparse').
  | At each grid point, the set of atoms used to build the partition table is smoothly restricted to
  | only those atoms whose free-atom density would be non-zero at that grid point.
  Partitioning for Hartree potential was not defined. Using partition_type for integrals.
  | Adjusted default value of keyword multip_moments_threshold to:       0.10000000E-11
  | This value may affect high angular momentum components of the Hartree potential in periodic systems.
  Spin handling was not defined in control.in. Defaulting to unpolarized case.
  Angular momentum expansion for Kerker preconditioner not set explicitly.
  | Using default value of   0
  No explicit requirement for turning off preconditioner.
  | By default, it will be turned off when the charge convergence reaches
  | sc_accuracy_rho  =   0.141421E-05
  No special mixing parameter while Kerker preconditioner is on.
  Using default: charge_mix_param =     0.0500.
  No q(lm)/r^(l+1) cutoff set for long-range Hartree potential.
  | Using default value of  0.100000E-09 .
  | Verify using the multipole_threshold keyword.
  Defaulting to new monopole extrapolation.
  Density update method: automatic selection selected.
  Using density matrix based charge density update.
  Using density matrix based charge density update.
  Using packed matrix style: index .
  Defaulting to use time-reversal symmetry for k-point grid.
  Charge integration errors on the 3D integration grid will be compensated
  by explicit normalization and distribution of residual charges.
  Use the "compensate_multipole_errors" flag to change this behaviour.
  Set 'collect_eigenvectors' to be '.true.' for all serial calculations. This is mandatory.
  Set 'collect_eigenvectors' to be '.true.' for KS_method lapack_fast and serial.
  Found potential conflicts with setting 'use_local_index' for this calculation. Will not set it.
 
  Consistency checks for the contents of geometry.in are next.
 

  Range separation radius for Ewald summation (hartree_convergence_parameter):      4.81466675 bohr.
 * Warning: Initial charge and total charge of the system are inconsistent.
 * Selected charge in control.in:     1.0000* Sum of initial charges in geometry.in:     0.0000
  Number of empty states per atom not set in control.in - providing a guess from actual geometry.
  | Total number of empty states used during s.c.f. cycle:       46
  If you use a very high smearing, use empty_states (per atom!) in control.in to increase this value.

  Structure-dependent array size parameters: 
  | Maximum number of distinct radial functions  :       23
  | Maximum number of basis functions            :      236
  | Number of Kohn-Sham states (occupied + empty):      122
------------------------------------------------------------
  After read_input_data [GB]:    309.16

  Performing system and environment tests:
  *** Environment variable OMP_NUM_THREADS is not set
  *** For performance reasons you might want to set it to 1
  | Checking for ScaLAPACK...
  | Testing pdtran()...
  | All pdtran() tests passed.
  After prepare_system [GB]:    317.49

------------------------------------------------------------
          Preparing all fixed parts of the calculation.
------------------------------------------------------------
  Determining machine precision:
    2.225073858507201E-308
  Setting up grids for atomic and cluster calculations.

  Creating wave function, potential, and density for free atoms.
  Runtime choices for atomic solver:
  | atomic solver xc        : PBE
  | compute density gradient: 1
  | compute kinetic density : F

  Species: Ti

  List of occupied orbitals and eigenvalues:
    n    l              occ      energy [Ha]    energy [eV]
    1    0           2.0000      -179.959082     -4896.9358
    2    0           2.0000       -19.727662      -536.8170
    3    0           2.0000        -2.283029       -62.1244
    4    0           2.0000        -0.148384        -4.0377
    2    1           6.0000       -16.317278      -444.0157
    3    1           6.0000        -1.409348       -38.3503
    3    2           2.0000        -0.139340        -3.7916


  Species: O

  List of occupied orbitals and eigenvalues:
    n    l              occ      energy [Ha]    energy [eV]
    1    0           2.0000       -18.926989      -515.0296
    2    0           2.0000        -0.880247       -23.9527
    2    1           4.0000        -0.331514        -9.0210


  Species: F

  List of occupied orbitals and eigenvalues:
    n    l              occ      energy [Ha]    energy [eV]
    1    0           2.0000       -24.399611      -663.9472
    2    0           2.0000        -1.098702       -29.8972
    2    1           5.0000        -0.408210       -11.1080


  Adding cutoff potential to free-atom effective potential.
  Creating fixed part of basis set: Ionic, confined, hydrogenic.
 
  Ti                   ion:

  List of free ionic orbitals and eigenvalues:
    n    l      energy [Ha]    energy [eV]
    1    0      -180.819616     -4920.3521
    2    0       -20.608761      -560.7929
    3    0        -3.115729       -84.7833
    4    0        -0.697188       -18.9715
    2    1       -17.196209      -467.9327
    3    1        -2.231296       -60.7167
    3    2        -0.911363       -24.7995


  List of ionic basis orbitals and eigenvalues:
    n    l      energy [Ha]    energy [eV]    outer radius [A]
    4    1        -0.517739       -14.0884       4.592117
    4    0        -0.696824       -18.9615       4.536321

 
  Ti                   hydrogenic:
 
  List of hydrogenic basis orbitals: 
    n    l      effective z      eigenvalue [eV]  inner max. [A]     outer max. [A]     outer radius [A]   
    4    3         8.000000       -54.4222           1.059019           1.059019           4.267343
    3    2         2.700000       -10.7798           1.726925           1.726925           4.592117
 
 
  O                    hydrogenic:
 
  List of hydrogenic basis orbitals: 
    n    l      effective z      eigenvalue [eV]  inner max. [A]     outer max. [A]     outer radius [A]   
    2    1         1.800000       -10.9749           1.164242           1.164242           4.578029
    3    2         7.600000       -87.3180           0.624125           0.624125           3.251020
    3    0         6.400000       -61.9207           0.061167           1.081902           4.001998
 
 
  F                    hydrogenic:
 
  List of hydrogenic basis orbitals: 
    n    l      effective z      eigenvalue [eV]  inner max. [A]     outer max. [A]     outer radius [A]   
    2    1         1.700000        -9.7616           1.243167           1.243167           4.598524
    3    2         7.400000       -82.7828           0.642437           0.642437           3.305741
    3    0         6.800000       -69.9026           0.057798           1.022307           3.781556
 
  Creating atomic-like basis functions for current effective potential.

  Species Ti                  :

  List of atomic basis orbitals and eigenvalues:
    n    l      energy [Ha]    energy [eV]    outer radius [A]
    1    0      -179.959082     -4896.9358       0.490254
    2    0       -19.727662      -536.8170       1.491292
    3    0        -2.283029       -62.1244       4.014314
    4    0        -0.148384        -4.0377       4.592117
    2    1       -16.317278      -444.0157       1.585290
    3    1        -1.409348       -38.3503       4.267343
    3    2        -0.139340        -3.7916       4.536321


  Species O                   :

  List of atomic basis orbitals and eigenvalues:
    n    l      energy [Ha]    energy [eV]    outer radius [A]
    1    0       -18.926989      -515.0296       1.415765
    2    0        -0.880247       -23.9527       4.413171
    2    1        -0.331514        -9.0210       4.522403


  Species F                   :

  List of atomic basis orbitals and eigenvalues:
    n    l      energy [Ha]    energy [eV]    outer radius [A]
    1    0       -24.399611      -663.9472       1.258458
    2    0        -1.098702       -29.8972       4.325857
    2    1        -0.408210       -11.1080       4.487453

  Assembling full basis from fixed parts.
  | Species Ti :   atomic orbital   1 s accepted.
  | Species Ti :   atomic orbital   2 s accepted.
  | Species Ti :   atomic orbital   3 s accepted.
  | Species Ti :    ionic orbital   4 s accepted.
  | Species Ti :   atomic orbital   4 s accepted.
  | Species Ti :   atomic orbital   2 p accepted.
  | Species Ti :   atomic orbital   3 p accepted.
  | Species Ti :    ionic orbital   4 p accepted.
  | Species Ti :   atomic orbital   3 d accepted.
  | Species Ti :    hydro orbital   3 d accepted.
  | Species Ti :    hydro orbital   4 f accepted.
  | Species O :   atomic orbital   1 s accepted.
  | Species O :    hydro orbital   3 s accepted.
  | Species O :   atomic orbital   2 s accepted.
  | Species O :   atomic orbital   2 p accepted.
  | Species O :    hydro orbital   2 p accepted.
  | Species O :    hydro orbital   3 d accepted.
  | Species F :   atomic orbital   1 s accepted.
  | Species F :    hydro orbital   3 s accepted.
  | Species F :   atomic orbital   2 s accepted.
  | Species F :   atomic orbital   2 p accepted.
  | Species F :    hydro orbital   2 p accepted.
  | Species F :    hydro orbital   3 d accepted.
 
  Basis size parameters after reduction:
  | Total number of radial functions:       23
  | Total number of basis functions :      236
 
  Per-task memory consumption for arrays in subroutine allocate_ext:
  |           6.114792MB.
  Testing on-site integration grid accuracy.
  |  Species  Function  <phi|h_atom|phi> (log., in eV)  <phi|h_atom|phi> (rad., in eV)
           1        1              -4896.9357674450              -4896.9322838106
           1        2               -536.8170048508               -536.8169722776
           1        3                -62.1243896260                -62.1243889401
           1        4                 -3.2653235630                 -3.2692838824
           1        5                  6.7987747276                  6.5460721871 ***
           1        6               -444.0157161949               -444.0157165643
           1        7                -38.3503235548                -38.3503234985
           1        8                  0.2923930877                  0.2745948114
           1        9                 -3.7933400649                 -3.7959244171
           1       10                  6.3288803616                  6.2510614935 ***
           1       11                 27.8451455747                 27.8452636415
           2       12               -515.0295626295               -515.0294562869
           2       13                 15.1698434419                 15.1699322205
           2       14                -21.6038822678                -21.6039118108
           2       15                 -9.0211123393                 -9.0212703513
           2       16                  8.3047696391                  8.2854840999
           2       17                 45.8428042125                 45.8427461223
           3       18               -663.9471986398               -663.9470363156
           3       19                 16.8514011578                 16.8512525340
           3       20                -28.4490593856                -28.4490661455
           3       21                -11.1080115307                -11.1080620174
           3       22                  7.1940182175                  7.1685154136
           3       23                 44.8544281765                 44.8543763625
 * Note: Onsite integrals marked "***" above are less accurate than
 * onsite_accuracy_threshold =    0.03000 eV. Usually, this is harmless.
 * When in doubt, tighten the "radial" and/or "radial_multiplier" flags to check.

  Preparing densities etc. for the partition functions (integrals / Hartree potential).

  Preparations completed.
  max(cpu_time)          :      0.498 s.
  Wall clock time (cpu1) :      0.491 s.
------------------------------------------------------------
  After prepare_scf [GB]:    336.45

  Initializing index lists of integration centers etc. from given atomic structure:
  Mapping all atomic coordinates to central unit cell.

  Initializing the k-points
  Using symmetry for reducing the k-points
  | k-points reduced from:      136 to       69
  | Number of k-points                             :        69
  The eigenvectors in the calculations are COMPLEX.
  | K-points in task   0:         2
  | K-points in task   1:         3
  | K-points in task   2:         3
  | K-points in task   3:         3
  | K-points in task   4:         3
  | K-points in task   5:         3
  | K-points in task   6:         2
  | K-points in task   7:         2
  | K-points in task   8:         2
  | K-points in task   9:         2
  | K-points in task  10:         2
  | K-points in task  11:         2
  | K-points in task  12:         2
  | K-points in task  13:         2
  | K-points in task  14:         2
  | K-points in task  15:         2
  | K-points in task  16:         2
  | K-points in task  17:         2
  | K-points in task  18:         2
  | K-points in task  19:         2
  | K-points in task  20:         2
  | K-points in task  21:         2
  | K-points in task  22:         2
  | K-points in task  23:         2
  | K-points in task  24:         2
  | K-points in task  25:         2
  | K-points in task  26:         2
  | K-points in task  27:         2
  | K-points in task  28:         2
  | K-points in task  29:         2
  | K-points in task  30:         2
  | K-points in task  31:         2
  | Number of basis functions in the Hamiltonian integrals :      3790
  | Number of basis functions in a single unit cell        :       236
  | Number of centers in hartree potential         :      1291
  | Number of centers in hartree multipole         :       593
  | Number of centers in electron density summation:       468
  | Number of centers in basis integrals           :       491
  | Number of centers in integrals                 :       232
  | Number of centers in hamiltonian               :       473
  | Consuming         90 KiB for k_phase.
  | Number of super-cells (origin) [n_cells]                     :         675
  | Number of super-cells (after PM_index) [n_cells]             :          84
  | Number of super-cells in hamiltonian [n_cells_in_hamiltonian]:          84
  | Size of matrix packed + index [n_hamiltonian_matrix_size] :      279831
  After initialize_bc_dependent_lists [GB]:    342.90

------------------------------------------------------------
          Begin self-consistency loop: Initialization.

          Date     :  20250120, Time     :  104256.010
------------------------------------------------------------
  Available memory per node after initialize_hartree_non_periodic_ewald [GB]:    342.94
  | Estimated reciprocal-space cutoff momentum G_max:         1.91888898 bohr^-1 .
  | Reciprocal lattice points for long-range Hartree potential:     344
  Available memory per node after initialize_recip_hartree_potential [GB]:    343.01
  Available memory per node after initialize_scalapack [GB]:    343.01
  Available memory per node after aims_elsi_init_scf [GB]:    343.28
  Available memory per node after initialize_fixed_grids [GB]:    343.29
  Partitioning the integration grid into batches with parallel hashing+maxmin method.
  | Number of batches:      897
  | Maximal batch size:     170
  | Minimal batch size:      53
  | Average batch size:      86.852
  | Standard deviation of batch sizes:      32.821

  Integration load balanced across    32 MPI tasks.
  Work distribution over tasks is as follows:
  Task     0 has       2434 integration points.
  Task     1 has       2463 integration points.
  Task     2 has       2458 integration points.
  Task     3 has       2409 integration points.
  Task     4 has       2417 integration points.
  Task     5 has       2450 integration points.
  Task     6 has       2447 integration points.
  Task     7 has       2460 integration points.
  Task     8 has       2453 integration points.
  Task     9 has       2407 integration points.
  Task    10 has       2442 integration points.
  Task    11 has       2459 integration points.
  Task    12 has       2407 integration points.
  Task    13 has       2405 integration points.
  Task    14 has       2414 integration points.
  Task    15 has       2456 integration points.
  Task    16 has       2468 integration points.
  Task    17 has       2452 integration points.
  Task    18 has       2413 integration points.
  Task    19 has       2417 integration points.
  Task    20 has       2447 integration points.
  Task    21 has       2433 integration points.
  Task    22 has       2451 integration points.
  Task    23 has       2415 integration points.
  Task    24 has       2433 integration points.
  Task    25 has       2435 integration points.
  Task    26 has       2422 integration points.
  Task    27 has       2421 integration points.
  Task    28 has       2439 integration points.
  Task    29 has       2426 integration points.
  Task    30 has       2429 integration points.
  Task    31 has       2424 integration points.
  Available memory per node after partition_grid [GB]:    347.07
  Initializing partition tables, free-atom densities, potentials, etc. across the integration grid (initialize_grid_storage).
  | initialize_grid_storage: Actual outermost partition radius vs. multipole_radius_free
  | (-- VB: in principle, multipole_radius_free should be larger, hence this output)
  | Species        1: Confinement radius =              4.999999999999999 AA, multipole_radius_free =              5.002391649902235 AA.
  | Species        1: outer_partition_radius set to              5.002391649902235 AA .
  | Species        2: Confinement radius =              4.999999999999999 AA, multipole_radius_free =              5.048384829883283 AA.
  | Species        2: outer_partition_radius set to              5.048384829883283 AA .
  | Species        3: Confinement radius =              4.999999999999999 AA, multipole_radius_free =              5.009370088163274 AA.
  | Species        3: outer_partition_radius set to              5.009370088163274 AA .
  | The sparse table of interatomic distances needs        690.50 kbyte instead of      1928.65 kbyte of memory.
  | Net number of integration points:    77906
  | of which are non-zero points    :    65625
  | Numerical average free-atom electrostatic potential    :     -5.18510460 eV
  Available memory per node after initialize_grid_storage_p1 [GB]:    353.96
  Renormalizing the initial density to the exact electron count on the 3D integration grid.
  | Initial density: Formal number of electrons (from input files) :     153.0000000000
  | Integrated number of electrons on 3D grid     :     152.9995994873
  | Charge integration error                      :      -0.0004005127
  | Normalization factor for density and gradient :       1.0000026177
  Renormalizing the free-atom superposition density to the exact electron count on the 3D integration grid.
  | Formal number of electrons (from input files) :     152.0000000000
  | Integrated number of electrons on 3D grid     :     152.9995994873
  | Charge integration error                      :      -0.0004005127
  | Normalization factor for density and gradient :       1.0000026177
  Obtaining max. number of non-zero basis functions in each batch (get_n_compute_maxes).
  | Maximal number of non-zero basis functions:      687 in task     0
  | Maximal number of non-zero basis functions:      683 in task     1
  | Maximal number of non-zero basis functions:      662 in task     2
  | Maximal number of non-zero basis functions:      696 in task     3
  | Maximal number of non-zero basis functions:      638 in task     4
  | Maximal number of non-zero basis functions:      686 in task     5
  | Maximal number of non-zero basis functions:      715 in task     6
  | Maximal number of non-zero basis functions:      682 in task     7
  | Maximal number of non-zero basis functions:      678 in task     8
  | Maximal number of non-zero basis functions:      667 in task     9
  | Maximal number of non-zero basis functions:      691 in task    10
  | Maximal number of non-zero basis functions:      696 in task    11
  | Maximal number of non-zero basis functions:      707 in task    12
  | Maximal number of non-zero basis functions:      701 in task    13
  | Maximal number of non-zero basis functions:      687 in task    14
  | Maximal number of non-zero basis functions:      711 in task    15
  | Maximal number of non-zero basis functions:      680 in task    16
  | Maximal number of non-zero basis functions:      705 in task    17
  | Maximal number of non-zero basis functions:      708 in task    18
  | Maximal number of non-zero basis functions:      685 in task    19
  | Maximal number of non-zero basis functions:      672 in task    20
  | Maximal number of non-zero basis functions:      720 in task    21
  | Maximal number of non-zero basis functions:      714 in task    22
  | Maximal number of non-zero basis functions:      670 in task    23
  | Maximal number of non-zero basis functions:      722 in task    24
  | Maximal number of non-zero basis functions:      667 in task    25
  | Maximal number of non-zero basis functions:      687 in task    26
  | Maximal number of non-zero basis functions:      696 in task    27
  | Maximal number of non-zero basis functions:      688 in task    28
  | Maximal number of non-zero basis functions:      697 in task    29
  | Maximal number of non-zero basis functions:      689 in task    30
  | Maximal number of non-zero basis functions:      687 in task    31
  Available memory per node after get_n_compute_maxes_p1 [GB]:    355.92
  Allocating        0.879 MB for KS_eigenvector_complex
  Available memory per node after allocate_matrices [GB]:    356.05
  Available memory per node after init_comm_sparse_local_matrix_scalapack [GB]:    356.12
  Integrating Hamiltonian matrix: batch-based integration.
  Time summed over all CPUs for integration: real work       11.261 s, elapsed       14.535 s
  Available memory per node after integrate hamiltonian matrix [GB]:    381.83
  Integrating overlap matrix.
  Time summed over all CPUs for integration: real work        3.661 s, elapsed        4.471 s
  Available memory per node after integrate ovlp matrix [GB]:    390.45
  Available memory per node after ASI_callbacks invoke [GB]:    390.47
  Available memory per node after save_overlap_scalapack [GB]:    390.47

  Updating Kohn-Sham eigenvalues and eigenvectors using ELSI and the (modified) LAPACK eigensolver.
  Singularity check in k-point 32, task 0 (analysis for other k-points/tasks may follow below):
  Overlap matrix is not singular
  | Lowest and highest eigenvalues :  0.1454E-02,  0.7514E+01
  Finished singularity check of overlap matrix
  | Time :     0.020 s
  Starting LAPACK eigensolver
  Finished Cholesky decomposition
  | Time :     0.006 s
  Finished transformation to standard eigenproblem
  | Time :     0.005 s
  Finished solving standard eigenproblem
  | Time :     0.018 s
  Finished back-transformation of eigenvectors
  | Time :     0.002 s

  Obtaining occupation numbers and electronic chemical potential using ELSI.
  | Note that, for insulating systems, the printed 'chemical potential' value is not uniquely defined.
  | It can be anywhere in the energy gap, as long as it correctly separates occupied and unoccupied states.
  | In systems with a gap, the physically relevant chemical potential is the VBM or HOMO.

  | Chemical potential (Fermi level):   -11.17164380 eV
  Available memory per node after advance_KS_solution [GB]:    398.96
  Writing Kohn-Sham eigenvalues.
  K-point:       1 at    0.000000    0.000000    0.000000 (in units of recip. lattice)

  State    Occupation    Eigenvalue [Ha]    Eigenvalue [eV]
      1       2.00000        -179.962363        -4897.02504
      2       2.00000        -179.961226        -4896.99412
      3       2.00000        -179.961061        -4896.98962
      4       2.00000        -179.960682        -4896.97931
      5       2.00000         -24.506650         -666.85987
      6       2.00000         -19.737905         -537.09572
      7       2.00000         -19.736669         -537.06208
      8       2.00000         -19.736515         -537.05790
      9       2.00000         -19.736087         -537.04626
     10       2.00000         -19.034645         -517.95905
     11       2.00000         -19.034481         -517.95457
     12       2.00000         -19.034481         -517.95457
     13       2.00000         -19.034480         -517.95456
     14       2.00000         -19.034480         -517.95456
     15       2.00000         -19.001837         -517.06628
     16       2.00000         -19.001770         -517.06448
     17       2.00000         -16.328081         -444.30968
     18       2.00000         -16.327760         -444.30096
     19       2.00000         -16.327754         -444.30079
     20       2.00000         -16.326909         -444.27779
     21       2.00000         -16.326677         -444.27148
     22       2.00000         -16.326599         -444.26937
     23       2.00000         -16.326435         -444.26489
     24       2.00000         -16.326430         -444.26477
     25       2.00000         -16.326369         -444.26311
     26       2.00000         -16.326352         -444.26265
     27       2.00000         -16.326043         -444.25424
     28       2.00000         -16.325825         -444.24830
     29       2.00000          -2.309001          -62.83112
     30       2.00000          -2.306573          -62.76503
     31       2.00000          -2.306086          -62.75180
     32       2.00000          -2.305095          -62.72482
     33       2.00000          -1.448326          -39.41096
     34       2.00000          -1.447925          -39.40005
     35       2.00000          -1.447701          -39.39395
     36       2.00000          -1.446217          -39.35356
     37       2.00000          -1.441075          -39.21364
     38       2.00000          -1.439189          -39.16232
     39       2.00000          -1.438422          -39.14145
     40       2.00000          -1.438307          -39.13832
     41       2.00000          -1.437530          -39.11719
     42       2.00000          -1.437281          -39.11041
     43       2.00000          -1.433007          -38.99410
     44       2.00000          -1.431343          -38.94883
     45       2.00000          -1.232477          -33.53740
     46       2.00000          -1.054199          -28.68620
     47       2.00000          -1.048809          -28.53954
     48       2.00000          -1.030435          -28.03955
     49       2.00000          -1.006488          -27.38794
     50       2.00000          -1.005008          -27.34766
     51       2.00000          -0.987344          -26.86699
     52       2.00000          -0.981810          -26.71642
     53       2.00000          -0.595229          -16.19700
     54       2.00000          -0.572537          -15.57953
     55       2.00000          -0.572226          -15.57107
     56       2.00000          -0.562906          -15.31746
     57       2.00000          -0.557559          -15.17196
     58       2.00000          -0.542525          -14.76287
     59       2.00000          -0.514708          -14.00591
     60       2.00000          -0.513757          -13.98004
     61       2.00000          -0.503923          -13.71244
     62       2.00000          -0.503256          -13.69428
     63       2.00000          -0.484140          -13.17411
     64       2.00000          -0.478784          -13.02836
     65       2.00000          -0.477043          -12.98099
     66       2.00000          -0.464824          -12.64849
     67       2.00000          -0.460678          -12.53569
     68       2.00000          -0.460082          -12.51947
     69       2.00000          -0.457354          -12.44525
     70       2.00000          -0.447582          -12.17934
     71       2.00000          -0.441835          -12.02294
     72       2.00000          -0.438404          -11.92958
     73       2.00000          -0.434180          -11.81465
     74       2.00000          -0.430328          -11.70981
     75       2.00000          -0.414738          -11.28559
     76       2.00000          -0.412136          -11.21478
     77       0.00000          -0.188200           -5.12119
     78       0.00000          -0.187174           -5.09326
     79       0.00000          -0.176599           -4.80549
     80       0.00000          -0.172809           -4.70237
     81       0.00000          -0.155591           -4.23383
     82       0.00000          -0.152365           -4.14607
     83       0.00000          -0.150786           -4.10309
     84       0.00000          -0.145408           -3.95675
     85       0.00000          -0.145393           -3.95633
     86       0.00000          -0.143563           -3.90655
     87       0.00000          -0.139537           -3.79700
     88       0.00000          -0.128608           -3.49959
     89       0.00000          -0.121813           -3.31470
     90       0.00000          -0.111309           -3.02886
     91       0.00000          -0.079521           -2.16387
     92       0.00000          -0.068295           -1.85840
     93       0.00000          -0.051558           -1.40298
     94       0.00000          -0.042731           -1.16276
     95       0.00000          -0.040443           -1.10050
     96       0.00000          -0.039497           -1.07476
     97       0.00000          -0.039115           -1.06439
     98       0.00000          -0.029254           -0.79605
     99       0.00000           0.021490            0.58479
    100       0.00000           0.056247            1.53056
    101       0.00000           0.086327            2.34907
    102       0.00000           0.096821            2.63464
    103       0.00000           0.100957            2.74717
    104       0.00000           0.106568            2.89987
    105       0.00000           0.165820            4.51220
    106       0.00000           0.182601            4.96882
    107       0.00000           0.237956            6.47511
    108       0.00000           0.250127            6.80630
    109       0.00000           0.307484            8.36705
    110       0.00000           0.328886            8.94943
    111       0.00000           0.333166            9.06590
    112       0.00000           0.362420            9.86196
    113       0.00000           0.371368           10.10544
    114       0.00000           0.375276           10.21179
    115       0.00000           0.409999           11.15664
    116       0.00000           0.422589           11.49923
    117       0.00000           0.470579           12.80510
    118       0.00000           0.488067           13.28097
    119       0.00000           0.503846           13.71034
    120       0.00000           0.503972           13.71377
    121       0.00000           0.520533           14.16443
    122       0.00000           0.525526           14.30028

  What follows are estimated values for band gap, HOMO, LUMO, etc.
  | They are estimated on a discrete k-point grid and not necessarily exact.
  | For converged numbers, create a DOS and/or band structure plot on a denser k-grid.

  Highest occupied state (VBM) at    -11.21478417 eV (relative to internal zero)
  | Occupation number:      2.00000000
  | K-point:       1 at    0.000000    0.000000    0.000000 (in units of recip. lattice)

  Lowest unoccupied state (CBM) at    -5.12119462 eV (relative to internal zero)
  | Occupation number:      0.00000000
  | K-point:       1 at    0.000000    0.000000    0.000000 (in units of recip. lattice)

  ESTIMATED overall HOMO-LUMO gap:      6.09358955 eV between HOMO at k-point 1 and LUMO at k-point 1
  | This appears to be a direct band gap.
  The gap value is above 0.2 eV. Unless you are using a very sparse k-point grid,
  this system is most likely an insulator or a semiconductor.
  Calculating total energy contributions from superposition of free atom densities.

  Total energy components:
  | Sum of eigenvalues            :       -2398.07999246 Ha      -65255.07673654 eV
  | XC energy correction          :        -238.32610949 Ha       -6485.18340175 eV
  | XC potential correction       :         308.13606565 Ha        8384.80896076 eV
  | Free-atom electrostatic energy:       -1724.45905595 Ha      -46924.91842597 eV
  | Hartree energy correction     :           0.00000000 Ha           0.00000000 eV
  | Entropy correction            :          -0.00000000 Ha          -0.00000000 eV
  | ---------------------------
  | Total energy                  :       -4052.72909225 Ha     -110280.36960351 eV
  | Total energy, T -> 0          :       -4052.72909225 Ha     -110280.36960351 eV  <-- do not rely on this value for anything but (periodic) metals
  | Electronic free energy        :       -4052.72909225 Ha     -110280.36960351 eV

  Derived energy quantities:
  | Kinetic energy                :        4078.34318655 Ha      110977.36457220 eV
  | Electrostatic energy          :       -7892.74616931 Ha     -214772.55077396 eV
  | Energy correction for multipole
  | error in Hartree potential    :           0.00000000 Ha           0.00000000 eV
  | Sum of eigenvalues per atom                           :       -5437.92306138 eV
  | Total energy (T->0) per atom                          :       -9190.03080029 eV  <-- do not rely on this value for anything but (periodic) metals
  | Electronic free energy per atom                       :       -9190.03080029 eV
  Initialize hartree_potential_storage
  Max. number of atoms included in rho_multipole:           12

  End scf initialization - timings             :  max(cpu_time)    wall_clock(cpu1)
  | Time for scf. initialization                :        1.045 s           1.059 s
  | Boundary condition initialization           :        0.114 s           0.116 s
  | Integration                                 :        0.630 s           0.636 s
  | Solution of K.-S. eqns.                     :        0.145 s           0.147 s
  | Grid partitioning                           :        0.079 s           0.079 s
  | Preloading free-atom quantities on grid     :        0.167 s           0.169 s
  | Free-atom superposition energy              :        0.017 s           0.016 s
  | Total energy evaluation                     :        0.002 s           0.002 s

  Partial memory accounting:
  | Current value for overall tracked memory usage:
  |   Minimum:        6.279 MB (on task  0)
  |   Maximum:        6.718 MB (on task  1)
  |   Average:        6.347 MB
  | Peak value for overall tracked memory usage:
  |   Minimum:       17.285 MB (on task  4 after allocating zora_vector2)
  |   Maximum:       18.700 MB (on task 24 after allocating zora_vector2)
  |   Average:       18.048 MB
  | Largest tracked array allocation so far:
  |   Minimum:        3.105 MB (hamiltonian_shell on task  4)
  |   Maximum:        3.977 MB (hamiltonian_shell on task 24)
  |   Average:        3.633 MB
  Note:  These values currently only include a subset of arrays which are explicitly tracked.
  The "true" memory usage will be greater.
------------------------------------------------------------
  Available memory after initialize_scf [GB]:    400.47
  Available memory after allocating mixing [GB]:    400.51
  Evaluating new KS density using the density matrix
  Evaluating density matrix
  Time summed over all CPUs for getting density from density matrix: real work        9.701 s, elapsed       13.040 s
  Integration grid: deviation in total charge (<rho> - N_e) =  -7.730705E-12

  Time for density update prior                :  max(cpu_time)    wall_clock(cpu1)
  | self-consistency iterative process          :        0.417 s           0.417 s
  Available memory before start of SCF loop [GB]:    422.81

------------------------------------------------------------
          Begin self-consistency iteration #    1

  Date     :  20250120, Time     :  104257.487
------------------------------------------------------------
  Pulay mixing of updated and previous charge densities.
  Available memory per node after mixing [GB]:    436.41
  Renormalizing the density to the exact electron count on the 3D integration grid.
  | Formal number of electrons (from input files) :     152.0000000000
  | Integrated number of electrons on 3D grid     :     152.9735461640
  | Charge integration error                      :       0.9735461640
  | Normalization factor for density and gradient :       0.9936358528
  * The proposed renormalization factor deviates too far from 1.
  * Since the initial charge in geometry.in was not equal to the formal charge,
  * it is not yet safe to renormalize the charge. If this message persists
  * even in the final s.c.f. cycle, your integration accuracy may not be good enough.

  Evaluating partitioned Hartree potential by multipole expansion.
  | Original multipole sum: apparent total charge =   0.264538E-01
  | Sum of charges compensated after spline to logarithmic grids =   0.120763E-04
  | Analytical far-field extrapolation by fixed multipoles:
  | Hartree multipole sum: apparent total charge =   0.264538E-01
  Summing up the Hartree potential.
  Time summed over all CPUs for potential: real work        0.064 s, elapsed        0.078 s
  | RMS charge density error from multipole expansion :   0.107895E-02
  | Average real-space part of the electrostatic potential :     -0.00015539 eV

  Integrating Hamiltonian matrix: batch-based integration.
  Time summed over all CPUs for integration: real work       10.424 s, elapsed       15.066 s => Consider using load balancing!

  Updating Kohn-Sham eigenvalues and eigenvectors using ELSI and the (modified) LAPACK eigensolver.
  Starting LAPACK eigensolver
  Finished Cholesky decomposition
  | Time :     0.009 s
  Finished transformation to standard eigenproblem
  | Time :     0.013 s
  Finished solving standard eigenproblem
  | Time :     0.035 s
  Finished back-transformation of eigenvectors
  | Time :     0.002 s

  Obtaining occupation numbers and electronic chemical potential using ELSI.
  | Note that, for insulating systems, the printed 'chemical potential' value is not uniquely defined.
  | It can be anywhere in the energy gap, as long as it correctly separates occupied and unoccupied states.
  | In systems with a gap, the physically relevant chemical potential is the VBM or HOMO.

  | Chemical potential (Fermi level):   -10.92498914 eV
  Writing Kohn-Sham eigenvalues.
  K-point:       1 at    0.000000    0.000000    0.000000 (in units of recip. lattice)

  State    Occupation    Eigenvalue [Ha]    Eigenvalue [eV]
      1       2.00000        -179.996496        -4897.95387
      2       2.00000        -179.995172        -4897.91782
      3       2.00000        -179.993083        -4897.86099
      4       2.00000        -179.986593        -4897.68439
      5       2.00000         -24.507706         -666.88862
      6       2.00000         -19.771200         -538.00174
      7       2.00000         -19.769988         -537.96874
      8       2.00000         -19.768052         -537.91608
      9       2.00000         -19.761850         -537.74730
     10       2.00000         -19.014630         -517.41440
     11       2.00000         -19.014629         -517.41439
     12       2.00000         -19.013381         -517.38042
     13       2.00000         -19.013381         -517.38041
     14       2.00000         -19.012702         -517.36194
     15       2.00000         -18.972972         -516.28085
     16       2.00000         -18.968968         -516.17188
     17       2.00000         -16.361525         -445.21974
     18       2.00000         -16.361253         -445.21235
     19       2.00000         -16.361200         -445.21091
     20       2.00000         -16.360290         -445.18614
     21       2.00000         -16.360032         -445.17913
     22       2.00000         -16.359970         -445.17742
     23       2.00000         -16.358303         -445.13208
     24       2.00000         -16.358089         -445.12625
     25       2.00000         -16.358039         -445.12488
     26       2.00000         -16.352067         -444.96240
     27       2.00000         -16.351846         -444.95638
     28       2.00000         -16.351795         -444.95498
     29       2.00000          -2.331447          -63.44189
     30       2.00000          -2.330989          -63.42945
     31       2.00000          -2.329805          -63.39721
     32       2.00000          -2.325306          -63.27478
     33       2.00000          -1.470291          -40.00865
     34       2.00000          -1.469682          -39.99208
     35       2.00000          -1.469436          -39.98539
     36       2.00000          -1.463117          -39.81344
     37       2.00000          -1.462505          -39.79678
     38       2.00000          -1.461737          -39.77588
     39       2.00000          -1.460168          -39.73320
     40       2.00000          -1.459657          -39.71929
     41       2.00000          -1.456895          -39.64414
     42       2.00000          -1.456443          -39.63183
     43       2.00000          -1.456224          -39.62588
     44       2.00000          -1.456022          -39.62037
     45       2.00000          -1.242035          -33.79750
     46       2.00000          -1.051159          -28.60350
     47       2.00000          -1.046095          -28.46570
     48       2.00000          -1.025370          -27.90173
     49       2.00000          -1.004364          -27.33014
     50       2.00000          -1.002368          -27.27582
     51       2.00000          -0.978182          -26.61769
     52       2.00000          -0.969457          -26.38028
     53       2.00000          -0.603913          -16.43331
     54       2.00000          -0.573862          -15.61557
     55       2.00000          -0.572664          -15.58298
     56       2.00000          -0.572019          -15.56543
     57       2.00000          -0.564564          -15.36258
     58       2.00000          -0.539813          -14.68905
     59       2.00000          -0.515031          -14.01471
     60       2.00000          -0.513635          -13.97671
     61       2.00000          -0.503329          -13.69629
     62       2.00000          -0.499089          -13.58089
     63       2.00000          -0.480443          -13.07352
     64       2.00000          -0.475139          -12.92918
     65       2.00000          -0.474697          -12.91716
     66       2.00000          -0.461567          -12.55988
     67       2.00000          -0.458891          -12.48706
     68       2.00000          -0.456220          -12.41437
     69       2.00000          -0.453546          -12.34161
     70       2.00000          -0.440965          -11.99928
     71       2.00000          -0.435167          -11.84150
     72       2.00000          -0.433417          -11.79387
     73       2.00000          -0.423252          -11.51728
     74       2.00000          -0.419610          -11.41818
     75       2.00000          -0.404651          -11.01111
     76       2.00000          -0.403072          -10.96814
     77       0.00000          -0.205996           -5.60542
     78       0.00000          -0.204937           -5.57663
     79       0.00000          -0.189631           -5.16012
     80       0.00000          -0.186117           -5.06450
     81       0.00000          -0.171850           -4.67628
     82       0.00000          -0.169118           -4.60194
     83       0.00000          -0.169075           -4.60077
     84       0.00000          -0.166054           -4.51856
     85       0.00000          -0.165740           -4.51001
     86       0.00000          -0.161083           -4.38330
     87       0.00000          -0.157345           -4.28159
     88       0.00000          -0.142873           -3.88777
     89       0.00000          -0.137995           -3.75504
     90       0.00000          -0.125586           -3.41736
     91       0.00000          -0.091137           -2.47997
     92       0.00000          -0.082284           -2.23907
     93       0.00000          -0.068081           -1.85258
     94       0.00000          -0.056449           -1.53607
     95       0.00000          -0.056115           -1.52696
     96       0.00000          -0.051740           -1.40792
     97       0.00000          -0.051645           -1.40534
     98       0.00000          -0.038226           -1.04018
     99       0.00000           0.013966            0.38004
    100       0.00000           0.051657            1.40566
    101       0.00000           0.082435            2.24317
    102       0.00000           0.090333            2.45808
    103       0.00000           0.099075            2.69596
    104       0.00000           0.102431            2.78728
    105       0.00000           0.160891            4.37807
    106       0.00000           0.177444            4.82849
    107       0.00000           0.233227            6.34643
    108       0.00000           0.244410            6.65073
    109       0.00000           0.300592            8.17952
    110       0.00000           0.322326            8.77094
    111       0.00000           0.328242            8.93191
    112       0.00000           0.354557            9.64798
    113       0.00000           0.365165            9.93666
    114       0.00000           0.370214           10.07403
    115       0.00000           0.399841           10.88024
    116       0.00000           0.414201           11.27099
    117       0.00000           0.466391           12.69115
    118       0.00000           0.479063           13.03596
    119       0.00000           0.492693           13.40687
    120       0.00000           0.493735           13.43522
    121       0.00000           0.510996           13.90491
    122       0.00000           0.515635           14.03114

  What follows are estimated values for band gap, HOMO, LUMO, etc.
  | They are estimated on a discrete k-point grid and not necessarily exact.
  | For converged numbers, create a DOS and/or band structure plot on a denser k-grid.

  Highest occupied state (VBM) at    -10.96814128 eV (relative to internal zero)
  | Occupation number:      2.00000000
  | K-point:       1 at    0.000000    0.000000    0.000000 (in units of recip. lattice)

  Lowest unoccupied state (CBM) at    -5.60542416 eV (relative to internal zero)
  | Occupation number:      0.00000000
  | K-point:       1 at    0.000000    0.000000    0.000000 (in units of recip. lattice)

  ESTIMATED overall HOMO-LUMO gap:      5.36271713 eV between HOMO at k-point 1 and LUMO at k-point 1
  | This appears to be a direct band gap.
  The gap value is above 0.2 eV. Unless you are using a very sparse k-point grid,
  this system is most likely an insulator or a semiconductor.

  Total energy components:
  | Sum of eigenvalues            :       -2399.51404187 Ha      -65294.09920636 eV
  | XC energy correction          :        -238.38540910 Ha       -6486.79702611 eV
[...]
      6       2.00000         -20.106148         -547.11612
      7       2.00000         -20.081613         -546.44850
      8       2.00000         -20.059356         -545.84285
      9       2.00000         -20.018684         -544.73610
     10       2.00000         -19.087134         -519.38734
     11       2.00000         -19.087134         -519.38733
     12       2.00000         -19.074142         -519.03381
     13       2.00000         -19.074142         -519.03381
     14       2.00000         -19.056268         -518.54745
     15       2.00000         -19.039982         -518.10427
     16       2.00000         -19.003936         -517.12340
     17       2.00000         -16.700149         -454.43419
     18       2.00000         -16.698144         -454.37962
     19       2.00000         -16.698005         -454.37582
     20       2.00000         -16.674308         -453.73099
     21       2.00000         -16.674284         -453.73034
     22       2.00000         -16.674033         -453.72353
     23       2.00000         -16.652614         -453.14069
     24       2.00000         -16.652419         -453.13538
     25       2.00000         -16.650842         -453.09248
     26       2.00000         -16.612625         -452.05253
     27       2.00000         -16.610688         -451.99982
     28       2.00000         -16.609683         -451.97247
     29       2.00000          -2.660557          -72.39745
     30       2.00000          -2.634606          -71.69127
     31       2.00000          -2.617593          -71.22832
     32       2.00000          -2.574927          -70.06734
     33       2.00000          -1.792085          -48.76512
     34       2.00000          -1.785263          -48.57948
     35       2.00000          -1.779194          -48.41433
     36       2.00000          -1.762542          -47.96121
     37       2.00000          -1.758944          -47.86330
     38       2.00000          -1.756491          -47.79654
     39       2.00000          -1.750202          -47.62543
     40       2.00000          -1.744281          -47.46429
     41       2.00000          -1.738792          -47.31494
     42       2.00000          -1.707900          -46.47433
     43       2.00000          -1.701498          -46.30011
     44       2.00000          -1.693916          -46.09379
     45       2.00000          -1.456872          -39.64349
     46       2.00000          -1.194538          -32.50503
     47       2.00000          -1.183686          -32.20974
     48       2.00000          -1.149057          -31.26743
     49       2.00000          -1.141196          -31.05352
     50       2.00000          -1.139260          -31.00085
     51       2.00000          -1.095066          -29.79827
     52       2.00000          -1.058720          -28.80923
     53       2.00000          -0.820387          -22.32385
     54       2.00000          -0.790254          -21.50391
     55       2.00000          -0.772516          -21.02122
     56       2.00000          -0.744760          -20.26595
     57       2.00000          -0.738720          -20.10160
     58       2.00000          -0.690886          -18.79996
     59       2.00000          -0.678538          -18.46397
     60       2.00000          -0.676230          -18.40114
     61       2.00000          -0.659568          -17.94776
     62       2.00000          -0.635485          -17.29242
     63       2.00000          -0.629636          -17.13328
     64       2.00000          -0.627874          -17.08531
     65       2.00000          -0.614754          -16.72831
     66       2.00000          -0.604001          -16.43570
     67       2.00000          -0.600372          -16.33695
     68       2.00000          -0.597884          -16.26926
     69       2.00000          -0.590553          -16.06978
     70       2.00000          -0.580700          -15.80165
     71       2.00000          -0.570912          -15.53531
     72       2.00000          -0.566179          -15.40653
     73       2.00000          -0.527951          -14.36629
     74       2.00000          -0.526083          -14.31546
     75       2.00000          -0.519153          -14.12688
     76       2.00000          -0.513426          -13.97103
     77       0.00000          -0.485166          -13.20203
     78       0.00000          -0.475822          -12.94777
     79       0.00000          -0.469734          -12.78211
     80       0.00000          -0.445282          -12.11675
     81       0.00000          -0.442732          -12.04735
     82       0.00000          -0.441249          -12.00700
     83       0.00000          -0.439356          -11.95548
     84       0.00000          -0.432359          -11.76508
     85       0.00000          -0.427522          -11.63348
     86       0.00000          -0.407827          -11.09754
     87       0.00000          -0.404417          -11.00475
     88       0.00000          -0.389247          -10.59194
     89       0.00000          -0.375826          -10.22674
     90       0.00000          -0.352857           -9.60174
     91       0.00000          -0.321824           -8.75729
     92       0.00000          -0.313300           -8.52532
     93       0.00000          -0.311615           -8.47947
     94       0.00000          -0.302921           -8.24291
     95       0.00000          -0.299630           -8.15336
     96       0.00000          -0.259287           -7.05555
     97       0.00000          -0.248003           -6.74851
     98       0.00000          -0.227643           -6.19449
     99       0.00000          -0.175386           -4.77250
    100       0.00000          -0.130685           -3.55612
    101       0.00000          -0.098374           -2.67690
    102       0.00000          -0.097915           -2.66440
    103       0.00000          -0.062095           -1.68969
    104       0.00000          -0.037820           -1.02913
    105       0.00000          -0.004187           -0.11394
    106       0.00000           0.003628            0.09872
    107       0.00000           0.047602            1.29533
    108       0.00000           0.067773            1.84421
    109       0.00000           0.107131            2.91519
    110       0.00000           0.112397            3.05849
    111       0.00000           0.155913            4.24262
    112       0.00000           0.177741            4.83659
    113       0.00000           0.189447            5.15511
    114       0.00000           0.192026            5.22530
    115       0.00000           0.228448            6.21640
    116       0.00000           0.236590            6.43795
    117       0.00000           0.270481            7.36017
    118       0.00000           0.280213            7.62498
    119       0.00000           0.288217            7.84278
    120       0.00000           0.291617            7.93531
    121       0.00000           0.310275            8.44300
    122       0.00000           0.311253            8.46964

  What follows are estimated values for band gap, HOMO, LUMO, etc.
  | They are estimated on a discrete k-point grid and not necessarily exact.
  | For converged numbers, create a DOS and/or band structure plot on a denser k-grid.

  Highest occupied state (VBM) at    -13.86842602 eV (relative to internal zero)
  | Occupation number:      2.00000000
  | K-point:      56 at    0.500000    0.705882    0.000000 (in units of recip. lattice)

  Lowest unoccupied state (CBM) at   -13.29994949 eV (relative to internal zero)
  | Occupation number:      0.00000000
  | K-point:      55 at    0.500000    0.470588    0.000000 (in units of recip. lattice)

  ESTIMATED overall HOMO-LUMO gap:      0.56847653 eV between HOMO at k-point 56 and LUMO at k-point 55
  | This appears to be an indirect band gap.
  | Smallest direct gap :      0.76313994 eV for k_point 55 at    0.500000    0.470588    0.000000 (in units of recip. lattice)
  The gap value is above 0.2 eV. Unless you are using a very sparse k-point grid,
  this system is most likely an insulator or a semiconductor.

  Total energy components:
  | Sum of eigenvalues            :       -2422.30876186 Ha      -65914.37509681 eV
  | XC energy correction          :        -238.61498808 Ha       -6493.04418823 eV
  | XC potential correction       :         308.49148879 Ha        8394.48051649 eV
  | Free-atom electrostatic energy:       -1724.45905595 Ha      -46924.91842597 eV
  | Hartree energy correction     :          34.78655193 Ha         946.59024000 eV
  | Entropy correction            :          -0.00000000 Ha          -0.00000000 eV
  | ---------------------------
  | Total energy                  :       -4042.10476518 Ha     -109991.26695452 eV
  | Total energy, T -> 0          :       -4042.10476518 Ha     -109991.26695452 eV  <-- do not rely on this value for anything but (periodic) metals
  | Electronic free energy        :       -4042.10476518 Ha     -109991.26695452 eV

  Derived energy quantities:
  | Kinetic energy                :        4089.15466335 Ha      111271.55982439 eV
  | Electrostatic energy          :       -7892.64444044 Ha     -214769.78259069 eV
  | Energy correction for multipole
  | error in Hartree potential    :           0.03930358 Ha           1.06950479 eV
  | Sum of eigenvalues per atom                           :       -5492.86459140 eV
  | Total energy (T->0) per atom                          :       -9165.93891288 eV  <-- do not rely on this value for anything but (periodic) metals
  | Electronic free energy per atom                       :       -9165.93891288 eV
  End evaluation of scaled ZORA corrections.
  | Time for scaled ZORA corrections            :        0.667 s           0.669 s
------------------------------------------------------------

  Energy and forces in a compact form:
  | Total energy uncorrected      :         -0.109991266954524E+06 eV
  | Total energy corrected        :         -0.109991266954524E+06 eV  <-- do not rely on this value for anything but (periodic) metals
  | Electronic free energy        :         -0.109991266954524E+06 eV

  ------------------------------------ 
  Start decomposition of the XC Energy 
  ------------------------------------ 
  X and C from original XC functional choice 
  Hartree-Fock Energy :          0.000000000 Ha              0.000000000 eV
  X Energy            :       -232.639106623 Ha          -6330.432180055 eV
  C Energy            :         -5.975881461 Ha           -162.612008174 eV
  XC Energy w/o HF    :       -238.614988084 Ha          -6493.044188229 eV
  Total XC Energy     :       -238.614988084 Ha          -6493.044188229 eV
  ------------------------------------ 
  LDA X and C from self-consistent density 
  X Energy LDA        :       -215.864277524 Ha          -5873.965855523 eV
  C Energy LDA        :        -11.767232058 Ha           -320.202676041 eV
  ------------------------------------ 
  End decomposition of the XC Energy 
  ------------------------------------ 

------------------------------------------------------------

  ------------------------------------------------------------
                   Starting Mulliken Analysis
  ------------------------------------------------------------

  Performing Mulliken charge analysis on all atoms.
  Full analysis will be written to separate file 'Mulliken.out'.
  Summary of the per-atom charge analysis:
  |
  |  atom       electrons          charge             l=0             l=1             l=2             l=3
  |     1        8.262016       -0.262016        3.899641        4.349147        0.013228
  |     2        8.608510       -0.608510        3.862381        4.735029        0.011101
  |     3       20.602094        1.397906        6.067905       12.414465        1.998813        0.120911
  |     4       20.918250        1.081750        6.037606       12.507589        2.230841        0.142214
  |     5        8.608515       -0.608515        3.862380        4.735034        0.011101
  |     6        8.587776       -0.587776        3.837871        4.738912        0.010994
  |     7        9.391024       -0.391024        3.925740        5.452217        0.013067
  |     8        8.642129       -0.642129        3.857506        4.774846        0.009777
  |     9       20.622834        1.377166        6.080247       12.409409        2.013071        0.120107
  |    10       20.898299        1.101701        6.046679       12.469308        2.246133        0.136179
  |    11        8.642125       -0.642125        3.857508        4.774840        0.009777
  |    12        8.216428       -0.216428        3.900662        4.301701        0.014064
  |
  | Total      152.000000        1.000000
 
  Writing Mulliken decomposition to disk ...

  Mulliken analysis                                       :  max(cpu_time)    wall_clock(cpu1)
  | Time for Mulliken analysis                            :          0.752               0.762
  | Total time for Mulliken analysis                      :          0.752               0.762
------------------------------------------------------------

------------------------------------------------------------------------------
  Final output of selected total energy values:

  The following output summarizes some interesting total energy values
  at the end of a run (AFTER all relaxation, molecular dynamics, etc.).

  | Total energy of the DFT / Hartree-Fock s.c.f. calculation      :        -109991.266954524 eV
  | Final zero-broadening corrected energy (caution - metals only) :        -109991.266954524 eV
  | For reference only, the value of 1 Hartree used in FHI-aims is :             27.211384500 eV
  | For reference only, the overall average (free atom contribution
  | + realspace contribution) of the electrostatic potential after
  | s.c.f. convergence is                                          :             -5.570827102 eV

  Before relying on these values, please be sure to understand exactly which
  total energy value is referred to by a given number. Different objects may
  all carry the same name 'total energy'. Definitions:

  Total energy of the DFT / Hartree-Fock s.c.f. calculation:
  | Note that this energy does not include ANY quantities calculated after the
  | s.c.f. cycle, in particular not ANY RPA, MP2, etc. many-body perturbation terms.
  | Scalar relativistic effects have been included in the 'scaled ZORA' approximation.

  Final zero-broadening corrected energy:
  | For metallic systems only, a broadening of the occupation numbers at the Fermi
  | level can be extrapolated back to zero broadening by an electron-gas inspired
  | formula. For all systems that are not real metals, this value can be
  | meaningless and should be avoided.

------------------------------------------------------------------------------
  Methods described in the following list of references were used in this FHI-aims run.
  If you publish the results, please make sure to cite these reference if they apply.
  FHI-aims is an academic code, and for our developers (often, Ph.D. students
  and postdocs), scientific credit in the community is essential.
  Thank you for helping us!

  For any use of FHI-aims, please cite:

    Volker Blum, Ralf Gehrke, Felix Hanke, Paula Havu, Ville Havu,
    Xinguo Ren, Karsten Reuter, and Matthias Scheffler
    'Ab initio molecular simulations with numeric atom-centered orbitals'
    Computer Physics Communications 180, 2175-2196 (2009)
    http://doi.org/10.1016/j.cpc.2009.06.022


  The provided symmetry information was generated with SPGlib:

    Atsushi Togo, Yusuke Seto, Dimitar Pashov
    SPGlib 1.7.3 obtained from http://spglib.sourceforge.net
    Licence: New BSD license
    Copyright (C) 2008 Atsushi Togo


  The ELSI infrastructure was used in your run to solve the Kohn-Sham electronic structure.
  Please check out https://wordpress.elsi-interchange.org to learn more.
  If scalability is important for your project, please acknowledge ELSI by citing:

    V. W-z. Yu, F. Corsetti, A. Garcia, W. P. Huhn, M. Jacquelin, W. Jia,
    B. Lange, L. Lin, J. Lu, W. Mi, A. Seifitokaldani, A. Vazquez-Mayagoitia,
    C. Yang, H. Yang, and V. Blum
    'ELSI: A unified software interface for Kohn-Sham electronic structure solvers'
    Computer Physics Communications 222, 267-285 (2018).
    http://doi.org/10.1016/j.cpc.2017.09.007


  For the real-space grid partitioning and parallelization used in this calculation, please cite:

    Ville Havu, Volker Blum, Paula Havu, and Matthias Scheffler,
    'Efficient O(N) integration for all-electron electronic structure calculation'
    'using numerically tabulated basis functions'
    Journal of Computational Physics 228, 8367-8379 (2009).
    http://doi.org/10.1016/j.jcp.2009.08.008

  Of course, there are many other important community references, e.g., those cited in the
  above references. Our list is limited to references that describe implementations in the
  FHI-aims code. The reason is purely practical (length of this list) - please credit others as well.

   One or more s.c.f. cycles took more than 50 s.c.f. iterations.
   It might be worth adjusting your convergence settings. For example,
   metals need a larger broadening and a smaller "charge_mix_param" value than semiconductors.

------------------------------------------------------------
          Leaving FHI-aims.
          Date     :  20250120, Time     :  104413.691

          Computational steps:
          | Number of self-consistency cycles          :           56
          | Number of SCF (re)initializations          :            1

          Detailed time accounting                     :  max(cpu_time)    wall_clock(cpu1)
          | Total time                                  :       78.553 s          78.612 s
          | Preparation time                            :        0.498 s           0.491 s
          | Boundary condition initalization            :        0.114 s           0.116 s
          | Grid partitioning                           :        0.079 s           0.079 s
          | Preloading free-atom quantities on grid     :        0.167 s           0.169 s
          | Free-atom superposition energy              :        0.017 s           0.016 s
          | Total time for integrations                 :       26.691 s          26.699 s
          | Total time for solution of K.-S. equations  :        4.370 s           4.371 s
          | Total time for density update               :       25.400 s          25.401 s
          | Total time for mixing & preconditioning     :       14.023 s          14.034 s
          | Total time for Hartree multipole update     :        0.074 s           0.071 s
          | Total time for Hartree multipole sum        :        5.305 s           5.307 s
          | Total time for total energy evaluation      :        0.024 s           0.029 s
          | Total time for scaled ZORA corrections      :        0.667 s           0.669 s
          | Total time for Mulliken analysis            :        0.762 s           0.762 s

          Partial memory accounting:
          | Residual value for overall tracked memory usage across tasks:     0.000000 MB (should be 0.000000 MB)
          | Peak values for overall tracked memory usage:
          |   Minimum:       18.632 MB (on task  4 after allocating zora_vector2)
          |   Maximum:       20.056 MB (on task 24 after allocating zora_vector2)
          |   Average:       19.405 MB
          | Largest tracked array allocation:
          |   Minimum:        3.105 MB (hamiltonian_shell on task  4)
          |   Maximum:        3.977 MB (hamiltonian_shell on task 24)
          |   Average:        3.633 MB
          Note:  These values currently only include a subset of arrays which are explicitly tracked.
          The "true" memory usage will be greater.

          Have a nice day.
------------------------------------------------------------
