------------------------------------------------------------
          Invoking FHI-aims ...

          When using FHI-aims, please cite the following reference:

            Volker Blum, Ralf Gehrke, Felix Hanke, Paula Havu,
            Ville Havu, Xinguo Ren, Karsten Reuter, and Matthias Scheffler,
            'Ab Initio Molecular Simulations with Numeric Atom-Centered Orbitals',
            Computer Physics Communications 180, 2175-2196 (2009)

          In addition, many other developments in FHI-aims are likely important for
          your particular application. If so, please cite them. A partial list of references
          is written at the end of this file. Thank you for giving credit to the authors
          of these developments.

          For general information about FHI-aims please find us at

            https://fhi-aims.org

          Online tutorials can be found at

            https://fhi-aims-club.gitlab.io/tutorials/tutorials-overview/

          For any questions about FHI-aims, please visit our slack channel at

            https://fhi-aims.slack.com

          and our main development and support site at

            https://aims-git.rz-berlin.mpg.de .

          The latter site, in particular, has a wiki to collect information, as well
          as an issue tracker to log discussions, suggest improvements, and report issues
          or bugs. https://aims-git.rz-berlin.mpg.de is also the main development site
          of the project and all new and updated code versions can be obtained there.
          Please send an email to aims-coordinators@fhi-berlin.mpg.de and we will add
          you to these sites. They are for you and everyone is welcome there.

------------------------------------------------------------



  Date     :  20241012, Time     :  232224.602
  Time zero on CPU 1             :   0.310911000000000E+00  s.
  Internal wall clock time zero  :           498007344.602  s.

  FHI-aims created a unique identifier for this run for later identification
  aims_uuid : A277F55E-983C-4FA4-A0D0-AB64C38963C9

  Build configuration of the current instance of FHI-aims
  -------------------------------------------------------
  FHI-aims version      : 240605
  Commit number         : b001b2e18
  CMake host system     : Linux-6.5.0-41-generic
  CMake version         : 3.22.1
  Fortran compiler      : /opt/intel/oneapi/mpi/2021.12/bin/mpiifort (IntelLLVM) version 2024.1.0
  Fortran compiler flags: -fc=ifx -O3 -ip -fp-model precise
  C compiler            : /opt/intel/oneapi/mpi/2021.12/bin/mpiicc (IntelLLVM) version 2024.1.0
  C compiler flags      : -cc=icx -O3 -ip -fp-model precise -std=gnu99
  C++ compiler          : /opt/intel/oneapi/mpi/2021.12/bin/mpiicpc (IntelLLVM) version 2024.1.0
  C++ compiler flags    : -cxx=icpx -O3 -ip -fp-model precise -std=c++11
  HIP compiler          :
  HIP compiler flags    :
  HIP GPU arch          :
  Using MPI
  Using ScaLAPACK
  Using LibXC
  Using i-PI
  Using RLSY
  Linking against: /opt/intel/oneapi/mkl/2024.1/lib/intel64/libmkl_intel_lp64.so
                   /opt/intel/oneapi/mkl/2024.1/lib/intel64/libmkl_sequential.so
                   /opt/intel/oneapi/mkl/2024.1/lib/intel64/libmkl_core.so
                   /opt/intel/oneapi/mkl/2024.1/lib/intel64/libmkl_blacs_intelmpi_lp64.so
                   /opt/intel/oneapi/mkl/2024.1/lib/intel64/libmkl_scalapack_lp64.so
                   /opt/intel/oneapi/mkl/2024.1/lib/intel64/libmkl_core.so

  Using       32 parallel tasks.
  Task        0 on host RSL-arvutus reporting.
  Task        1 on host RSL-arvutus reporting.
  Task        2 on host RSL-arvutus reporting.
  Task        3 on host RSL-arvutus reporting.
  Task        4 on host RSL-arvutus reporting.
  Task        5 on host RSL-arvutus reporting.
  Task        6 on host RSL-arvutus reporting.
  Task        7 on host RSL-arvutus reporting.
  Task        8 on host RSL-arvutus reporting.
  Task        9 on host RSL-arvutus reporting.
  Task       10 on host RSL-arvutus reporting.
  Task       11 on host RSL-arvutus reporting.
  Task       12 on host RSL-arvutus reporting.
  Task       13 on host RSL-arvutus reporting.
  Task       14 on host RSL-arvutus reporting.
  Task       15 on host RSL-arvutus reporting.
  Task       16 on host RSL-arvutus reporting.
  Task       17 on host RSL-arvutus reporting.
  Task       18 on host RSL-arvutus reporting.
  Task       19 on host RSL-arvutus reporting.
  Task       20 on host RSL-arvutus reporting.
  Task       21 on host RSL-arvutus reporting.
  Task       22 on host RSL-arvutus reporting.
  Task       23 on host RSL-arvutus reporting.
  Task       24 on host RSL-arvutus reporting.
  Task       25 on host RSL-arvutus reporting.
  Task       26 on host RSL-arvutus reporting.
  Task       27 on host RSL-arvutus reporting.
  Task       28 on host RSL-arvutus reporting.
  Task       29 on host RSL-arvutus reporting.
  Task       30 on host RSL-arvutus reporting.
  Task       31 on host RSL-arvutus reporting.

  Memory overcommitment is allowed on your operating system.

  Obtaining array dimensions for all initial allocations:
  
  -----------------------------------------------------------------------
  Parsing control.in (first pass over file, find array dimensions only).
  The contents of control.in will be repeated verbatim below
  unless switched off by setting 'verbatim_writeout .false.' .
  in the first line of control.in .
  -----------------------------------------------------------------------
  
    xc              pbe
    relativistic    zora scalar 1.0e-12
    k_grid          4 8 2
  
    spin            collinear
    default_initial_moment        0.0
    charge	  1.0
    output          Mulliken
  
  
  ################################################################################
  #
  #  FHI-aims code project
  #  VB, Fritz-Haber Institut, 2009
  #
  #  Suggested "light" defaults for Ti atom (to be pasted into control.in file)
  #  Be sure to double-check any results obtained with these settings for post-processing,
  #  e.g., with the "tight" defaults and larger basis sets.
  #
  ################################################################################
    species        Ti
  #     global species definitions
      nucleus             22
      mass                47.867
  #
      l_hartree           4
  #
      cut_pot             3.5          1.5  1.0
      basis_dep_cutoff    1e-4
  #
      radial_base         48 5.0
      radial_multiplier   1
      angular_grids       specified
        division   0.5171   50
        division   0.9824  110
        division   1.2917  194
        division   1.4940  302
  #      division   1.6934  434
  #      division   1.8425  590
  #      division   2.1901  770
  #      division   2.2896  974
  #      division   2.8244 1202
  #      outer_grid  974
        outer_grid  302
  ################################################################################
  #
  #  Definition of "minimal" basis
  #
  ################################################################################
  #     valence basis states
      valence      4  s   2.
      valence      3  p   6.
      valence      3  d   2.
  #     ion occupancy
      ion_occ      4  s   1.
      ion_occ      3  p   6.
      ion_occ      3  d   1.
  ################################################################################
  #
  #  Suggested additional basis functions. For production calculations,
  #  uncomment them one after another (the most important basis functions are
  #  listed first).
  #
  #  Constructed for dimers: 1.6 A, 1.85 A, 2.5 A, 3.25 A, 4.25 A
  #
  ################################################################################
  #  "First tier" - improvements: -396.25 meV to -19.41 meV
       hydro 4 f 8
       hydro 3 d 2.7
       ionic 4 p auto
  #     hydro 5 g 11.6
       ionic 4 s auto
  #  "Second tier" - improvements: -16.30 meV to -2.03 meV
  #     hydro 3 d 4.4
  #     hydro 6 h 16
  #     hydro 4 f 9.4
  #     hydro 4 p 4.5
  #     hydro 1 s 0.5
  #  "Third tier" - improvements: -6.28 meV to -0.37 meV
  #     hydro 4 d 6.4
  #     hydro 4 f 10
  #     hydro 5 g 12
  #     hydro 2 p 1.7
  #     hydro 6 h 16.4
  #     hydro 4 s 3.8
  #  Further basis functions: -0.45 meV and smaller improvements
  #     hydro 3 d 8.8
  #     hydro 5 p 18
  #     hydro 4 f 22.4
  #     hydro 5 f 7.2  # -0.16 meV
  #     hydro 3 d 2.1  # -0.11 meV
  #     hydro 5 g 7.4  # -0.09 meV
  
  
  ################################################################################
  #
  #  FHI-aims code project
  #  VB, Fritz-Haber Institut, 2009
  #
  #  Suggested "light" defaults for O atom (to be pasted into control.in file)
  #  Be sure to double-check any results obtained with these settings for post-processing,
  #  e.g., with the "tight" defaults and larger basis sets.
  #
  ################################################################################
    species        O
  #     global species definitions
      nucleus             8
      mass                15.9994
  #
      l_hartree           4
  #
      cut_pot             3.5  1.5  1.0
      basis_dep_cutoff    1e-4
  #
      radial_base         36 5.0
      radial_multiplier   1
       angular_grids specified
        division   0.2659   50
        division   0.4451  110
        division   0.6052  194
        division   0.7543  302
  #      division   0.8014  434
  #      division   0.8507  590
  #      division   0.8762  770
  #      division   0.9023  974
  #      division   1.2339 1202
  #      outer_grid 974
        outer_grid 302
  ################################################################################
  #
  #  Definition of "minimal" basis
  #
  ################################################################################
  #     valence basis states
      valence      2  s   2.
      valence      2  p   4.
  #     ion occupancy
      ion_occ      2  s   1.
      ion_occ      2  p   3.
  ################################################################################
  #
  #  Suggested additional basis functions. For production calculations,
  #  uncomment them one after another (the most important basis functions are
  #  listed first).
  #
  #  Constructed for dimers: 1.0 A, 1.208 A, 1.5 A, 2.0 A, 3.0 A
  #
  ################################################################################
  #  "First tier" - improvements: -699.05 meV to -159.38 meV
       hydro 2 p 1.8
       hydro 3 d 7.6
       hydro 3 s 6.4
  #  "Second tier" - improvements: -49.91 meV to -5.39 meV
  #     hydro 4 f 11.6
  #     hydro 3 p 6.2
  #     hydro 3 d 5.6
  #     hydro 5 g 17.6
  #     hydro 1 s 0.75
  #  "Third tier" - improvements: -2.83 meV to -0.50 meV
  #     ionic 2 p auto
  #     hydro 4 f 10.8
  #     hydro 4 d 4.7
  #     hydro 2 s 6.8
  #  "Fourth tier" - improvements: -0.40 meV to -0.12 meV
  #     hydro 3 p 5
  #     hydro 3 s 3.3
  #     hydro 5 g 15.6
  #     hydro 4 f 17.6
  #     hydro 4 d 14
  # Further basis functions - -0.08 meV and below
  #     hydro 3 s 2.1
  #     hydro 4 d 11.6
  #     hydro 3 p 16
  #     hydro 2 s 17.2
  ################################################################################
  #
  #  FHI-aims code project
  #  VB, Fritz-Haber Institut, 2009
  #
  #  Suggested "light" defaults for F atom (to be pasted into control.in file)
  #  Be sure to double-check any results obtained with these settings for post-processing,
  #  e.g., with the "tight" defaults and larger basis sets.
  #
  ################################################################################
    species        F
  #     global species definitions
      nucleus             9
      mass                18.9984032
  #
      l_hartree           4
  #
      cut_pot             3.5  1.5  1.0
      basis_dep_cutoff    1e-4
  #
      radial_base         37 5.0
      radial_multiplier   1
      angular_grids specified
        division   0.4014  110
        division   0.5291  194
        division   0.6019  302
  #      division   0.6814  434
  #      division   0.7989  590
  #      division   0.8965  770
  #      division   1.3427  974
  #      outer_grid   974
        outer_grid   302
  ################################################################################
  #
  #  Definition of "minimal" basis
  #
  ################################################################################
  #     valence basis states
      valence      2  s   2.
      valence      2  p   5.
  #     ion occupancy
      ion_occ      2  s   1.
      ion_occ      2  p   4.
  ################################################################################
  #
  #  Suggested additional basis functions. For production calculations,
  #  uncomment them one after another (the most important basis functions are
  #  listed first).
  #
  #  Constructed for dimers: 1.2 A, 1.418 A, 1.75 A, 2.25 A, 3.25 A
  #
  ################################################################################
  #  "First tier" - improvements: -149.44 meV to -45.88 meV
       hydro 2 p 1.7
       hydro 3 d 7.4
       hydro 3 s 6.8
  #  "Second tier" - improvements: -12.96 meV to -1.56 meV
  #     hydro 4 f 11.2
  #     ionic 2 p auto
  #     hydro 1 s 0.75
  #     hydro 4 d 8.8
  #     hydro 5 g 16.8
  #  "Third tier" - improvements: -0.58 meV to -0.05 meV
  #     hydro 3 p 6.2
  #     hydro 3 s 3.2
  #     hydro 4 f 9.6
  #     hydro 3 s 19.6
  #     hydro 4 d 8.6
  #     hydro 5 g 14.4
  # Further basis functions: -0.05 meV and below
  #     hydro 3 p 4.2
  
  -----------------------------------------------------------------------
  Completed first pass over input file control.in .
  -----------------------------------------------------------------------
  
  
  -----------------------------------------------------------------------
  Parsing geometry.in (first pass over file, find array dimensions only).
  The contents of geometry.in will be repeated verbatim below
  unless switched off by setting 'verbatim_writeout .false.' .
  in the first line of geometry.in .
  -----------------------------------------------------------------------
  
  lattice_vector 13.132253 0.000000 0.000000
  lattice_vector 0.000000 5.945765 0.000000
  lattice_vector 0.000000 0.000000 45.139409
  
  atom_frac 0.499997 0.000000 0.376754 O
  atom_frac 0.152778 0.250000 0.405039 O
  atom_frac 0.249999 0.000000 0.405039 Ti
  atom_frac 0.499999 0.250000 0.405039 Ti
  atom_frac 0.347220 0.250000 0.405040 O
  atom_frac 0.000000 0.000000 0.433324 O
  atom_frac 0.249996 0.000000 0.449490 O
  atom_frac 0.402776 0.250000 0.477774 O
  atom_frac 0.499997 0.000000 0.477775 Ti
  atom_frac 0.249997 0.250000 0.477775 Ti
  atom_frac 0.097218 0.250000 0.477775 O
  atom_frac 0.249999 0.000000 0.506060 O
  atom_frac 0.499994 0.000000 0.522225 O
  atom_frac 0.152775 0.250000 0.550510 O
  atom_frac 0.249996 0.000000 0.550510 Ti
  atom_frac 0.499996 0.250000 0.550510 Ti
  atom_frac 0.347217 0.250000 0.550511 O
  atom_frac 0.499998 0.000000 0.578795 O
  atom_frac 0.249993 0.000000 0.594961 O
  atom_frac 0.402774 0.250000 0.623245 O
  atom_frac 0.499995 0.000000 0.623246 Ti
  atom_frac 0.249995 0.250000 0.623246 Ti
  atom_frac 0.097216 0.250000 0.623246 O
  atom_frac 0.249996 0.000000 0.651531 O
  atom_frac 0.499997 0.500000 0.376754 O
  atom_frac 0.152778 0.750000 0.405039 O
  atom_frac 0.249999 0.500000 0.405039 Ti
  atom_frac 0.499999 0.750000 0.405039 Ti
  atom_frac 0.347220 0.750000 0.405040 O
  atom_frac 0.000000 0.500000 0.433324 O
  atom_frac 0.249996 0.500000 0.449490 O
  atom_frac 0.402776 0.750000 0.477774 O
  atom_frac 0.499997 0.500000 0.477775 Ti
  atom_frac 0.249997 0.750000 0.477775 Ti
  atom_frac 0.097218 0.750000 0.477775 O
  atom_frac 0.249999 0.500000 0.506060 O
  atom_frac 0.499994 0.500000 0.522225 F
  atom_frac 0.152775 0.750000 0.550510 O
  atom_frac 0.249996 0.500000 0.550510 Ti
  atom_frac 0.499996 0.750000 0.550510 Ti
  atom_frac 0.347217 0.750000 0.550511 O
  atom_frac 0.499998 0.500000 0.578795 O
  atom_frac 0.249993 0.500000 0.594961 O
  atom_frac 0.402774 0.750000 0.623245 O
  atom_frac 0.499995 0.500000 0.623246 Ti
  atom_frac 0.249995 0.750000 0.623246 Ti
  atom_frac 0.097216 0.750000 0.623246 O
  atom_frac 0.249996 0.500000 0.651531 O
  atom_frac 0.999997 0.000000 0.376754 O
  atom_frac 0.652778 0.250000 0.405039 O
  atom_frac 0.749999 0.000000 0.405039 Ti
  atom_frac 0.999999 0.250000 0.405039 Ti
  atom_frac 0.847220 0.250000 0.405040 O
  atom_frac 0.500000 0.000000 0.433324 O
  atom_frac 0.749996 0.000000 0.449490 O
  atom_frac 0.902776 0.250000 0.477774 O
  atom_frac 0.999997 0.000000 0.477775 Ti
  atom_frac 0.749997 0.250000 0.477775 Ti
  atom_frac 0.597218 0.250000 0.477775 O
  atom_frac 0.749999 0.000000 0.506060 O
  atom_frac 0.999994 0.000000 0.522225 O
  atom_frac 0.652775 0.250000 0.550510 O
  atom_frac 0.749996 0.000000 0.550510 Ti
  atom_frac 0.999996 0.250000 0.550510 Ti
  atom_frac 0.847217 0.250000 0.550511 O
  atom_frac 0.999998 0.000000 0.578795 O
  atom_frac 0.749993 0.000000 0.594961 O
  atom_frac 0.902774 0.250000 0.623245 O
  atom_frac 0.999995 0.000000 0.623246 Ti
  atom_frac 0.749995 0.250000 0.623246 Ti
  atom_frac 0.597216 0.250000 0.623246 O
  atom_frac 0.749996 0.000000 0.651531 O
  atom_frac 0.999997 0.500000 0.376754 O
  atom_frac 0.652778 0.750000 0.405039 O
  atom_frac 0.749999 0.500000 0.405039 Ti
  atom_frac 0.999999 0.750000 0.405039 Ti
  atom_frac 0.847220 0.750000 0.405040 O
  atom_frac 0.500000 0.500000 0.433324 O
  atom_frac 0.749996 0.500000 0.449490 O
  atom_frac 0.902776 0.750000 0.477774 O
  atom_frac 0.999997 0.500000 0.477775 Ti
  atom_frac 0.749997 0.750000 0.477775 Ti
  atom_frac 0.597218 0.750000 0.477775 O
  atom_frac 0.749999 0.500000 0.506060 O
  atom_frac 0.999994 0.500000 0.522225 O
  atom_frac 0.652775 0.750000 0.550510 O
  atom_frac 0.749996 0.500000 0.550510 Ti
  atom_frac 0.999996 0.750000 0.550510 Ti
  atom_frac 0.847217 0.750000 0.550511 O
  atom_frac 0.999998 0.500000 0.578795 O
  atom_frac 0.749993 0.500000 0.594961 O
  atom_frac 0.902774 0.750000 0.623245 O
  atom_frac 0.999995 0.500000 0.623246 Ti
  atom_frac 0.749995 0.750000 0.623246 Ti
  atom_frac 0.597216 0.750000 0.623246 O
  atom_frac 0.749996 0.500000 0.651531 O
  
  -----------------------------------------------------------------------
  Completed first pass over input file geometry.in .
  -----------------------------------------------------------------------
  

  Basic array size parameters:
  | Number of species                 :        3
  | Number of atoms                   :       96
  | Number of lattice vectors         :        3
  | Max. basis fn. angular momentum   :        3
  | Max. atomic/ionic basis occupied n:        4
  | Max. number of basis fn. types    :        3
  | Max. radial fns per species/type  :        7
  | Max. logarithmic grid size        :     1383
  | Max. radial integration grid size :       48
  | Max. angular integration grid size:      302
  | Max. angular grid division number :        8
  | Radial grid for Hartree potential :     1383
  | Number of spin channels           :        2

------------------------------------------------------------
          Reading file control.in.
------------------------------------------------------------
  XC: Using PBE gradient-corrected functionals.
  Scalar relativistic treatment of kinetic energy: ZORA.
  Threshold value for ZORA:   0.100000E-11
  Found k-point grid:         4         8         2
  Spin treatment: Spin density functional theory - collinear spins.
  Initial spin moment per atom:   0.0000
  Charged system requested: Charge =   0.100000E+01.
  Mulliken charge analysis will be performed and summarised to the main output.
  Full Mulliken charge analysis will be written to file 'Mulliken.out'.
 
  Reading configuration options for species Ti                  .
  | Found nuclear charge :  22.0000
  | Found atomic mass :    47.8670000000000      amu
  | Found l_max for Hartree potential  :   4
  | Found cutoff potl. onset [A], width [A], scale factor :    3.50000    1.50000    1.00000
  | Threshold for basis-dependent cutoff potential is   0.100000E-03
  | Found data for basic radial integration grid :    48 points, outermost radius =    5.000 A
  | Found multiplier for basic radial grid :   1
  | Found angular grid specification: user-specified.
  | Specified grid contains     5 separate shells.
  | Check grid settings after all constraints further below.
  | Found free-atom valence shell :  4 s   2.000
  | Found free-atom valence shell :  3 p   6.000
  | Found free-atom valence shell :  3 d   2.000
  | Found free-ion valence shell :  4 s   1.000
  | Found free-ion valence shell :  3 p   6.000
  | Found free-ion valence shell :  3 d   1.000
  | Found hydrogenic basis function :  4 f   8.000
  | Found hydrogenic basis function :  3 d   2.700
  | Found ionic basis function :  4 p , default cutoff radius.
  | Found ionic basis function :  4 s , default cutoff radius.
 | Encountered keyword species, ending the description of species Ti                  .
  Species Ti                  : Missing cutoff potential type.
  Defaulting to exp(1/x)/(1-x)^2 type cutoff potential.
  Species Ti: No 'logarithmic' tag. Using default grid for free atom:
  | Default logarithmic grid data [bohr] : 0.1000E-03 0.1000E+03 0.1012E+01
  | Will include ionic basis functions of  2.0-fold positive Ti                   ion.
  Species Ti: On-site basis accuracy parameter (for Gram-Schmidt orthonormalisation) not specified.
  Using default value basis_acc =  0.1000000E-03.
  Species Ti                  : Using default innermost maximum threshold i_radial=  2 for radial functions.
  Species Ti                  : Default cutoff onset for free atom density etc. : 0.35000000E+01 AA.
  Species Ti                  : Basic radial grid will be enhanced according to radial_multiplier =   1, to contain    48 grid points.
 
  Reading configuration options for species O                   .
  | Found nuclear charge :   8.0000
  | Found atomic mass :    15.9994000000000      amu
  | Found l_max for Hartree potential  :   4
  | Found cutoff potl. onset [A], width [A], scale factor :    3.50000    1.50000    1.00000
  | Threshold for basis-dependent cutoff potential is   0.100000E-03
  | Found data for basic radial integration grid :    36 points, outermost radius =    5.000 A
  | Found multiplier for basic radial grid :   1
  | Found angular grid specification: user-specified.
  | Specified grid contains     5 separate shells.
  | Check grid settings after all constraints further below.
  | Found free-atom valence shell :  2 s   2.000
  | Found free-atom valence shell :  2 p   4.000
  | Found free-ion valence shell :  2 s   1.000
  | Found free-ion valence shell :  2 p   3.000
  | Found hydrogenic basis function :  2 p   1.800
  | Found hydrogenic basis function :  3 d   7.600
  | Found hydrogenic basis function :  3 s   6.400
 | Encountered keyword species, ending the description of species O                   .
  Species O                   : Missing cutoff potential type.
  Defaulting to exp(1/x)/(1-x)^2 type cutoff potential.
  Species O : No 'logarithmic' tag. Using default grid for free atom:
  | Default logarithmic grid data [bohr] : 0.1000E-03 0.1000E+03 0.1012E+01
  Species O : On-site basis accuracy parameter (for Gram-Schmidt orthonormalisation) not specified.
  Using default value basis_acc =  0.1000000E-03.
  Species O                   : Using default innermost maximum threshold i_radial=  2 for radial functions.
  Species O                   : Default cutoff onset for free atom density etc. : 0.35000000E+01 AA.
  Species O                   : Basic radial grid will be enhanced according to radial_multiplier =   1, to contain    36 grid points.
 
  Reading configuration options for species F                   .
  | Found nuclear charge :   9.0000
  | Found atomic mass :    18.9984032000000      amu
  | Found l_max for Hartree potential  :   4
  | Found cutoff potl. onset [A], width [A], scale factor :    3.50000    1.50000    1.00000
  | Threshold for basis-dependent cutoff potential is   0.100000E-03
  | Found data for basic radial integration grid :    37 points, outermost radius =    5.000 A
  | Found multiplier for basic radial grid :   1
  | Found angular grid specification: user-specified.
  | Specified grid contains     4 separate shells.
  | Check grid settings after all constraints further below.
  | Found free-atom valence shell :  2 s   2.000
  | Found free-atom valence shell :  2 p   5.000
  | Found free-ion valence shell :  2 s   1.000
  | Found free-ion valence shell :  2 p   4.000
  | Found hydrogenic basis function :  2 p   1.700
  | Found hydrogenic basis function :  3 d   7.400
  | Found hydrogenic basis function :  3 s   6.800
  Species F                   : Missing cutoff potential type.
  Defaulting to exp(1/x)/(1-x)^2 type cutoff potential.
  Species F : No 'logarithmic' tag. Using default grid for free atom:
  | Default logarithmic grid data [bohr] : 0.1000E-03 0.1000E+03 0.1012E+01
  Species F : On-site basis accuracy parameter (for Gram-Schmidt orthonormalisation) not specified.
  Using default value basis_acc =  0.1000000E-03.
  Species F                   : Using default innermost maximum threshold i_radial=  2 for radial functions.
  Species F                   : Default cutoff onset for free atom density etc. : 0.35000000E+01 AA.
  Species F                   : Basic radial grid will be enhanced according to radial_multiplier =   1, to contain    37 grid points.
 
  Finished reading input file 'control.in'.
 
------------------------------------------------------------


------------------------------------------------------------
          Reading geometry description geometry.in.
------------------------------------------------------------
  | The smallest distance between any two atoms is         1.95947673 AA.
  | The first atom of this pair is atom number                     35 .
  | The second atom of this pair is atom number                    57 .
  | Wigner-Seitz cell of the first atom image           0     0     0 .
  | (The Wigner-Seitz cell of the second atom is 0 0 0  by definition.)

  Symmetry information by spglib:
  | Precision set to  0.1E-04
  | Number of Operations  : 2
  | Space group           : 6
  | International         : Pm
  | Schoenflies           : Cs^1
  Input structure read successfully.
  The structure contains       96 atoms,  and a total of       1216.000 electrons.

  Input geometry:
  | Unit cell:
  |       13.13225300        0.00000000        0.00000000
  |        0.00000000        5.94576500        0.00000000
  |        0.00000000        0.00000000       45.13940900
  | Atomic structure:
  |       Atom                x [A]            y [A]            z [A]
  |    1: Species O             6.56608710        0.00000000       17.00645290
  |    2: Species O             2.00631935        1.48644125       18.28322108
  |    3: Species Ti            3.28305012        0.00000000       18.28322108
  |    4: Species Ti            6.56611337        1.48644125       18.28322108
  |    5: Species O             4.55978089        1.48644125       18.28326622
  |    6: Species O             0.00000000        0.00000000       19.55998927
  |    7: Species O             3.28301072        0.00000000       20.28971295
  |    8: Species O             5.28935633        1.48644125       21.56643600
  |    9: Species Ti            6.56608710        0.00000000       21.56648113
  |   10: Species Ti            3.28302385        1.48644125       21.56648113
  |   11: Species O             1.27669137        1.48644125       21.56648113
  |   12: Species O             3.28305012        0.00000000       22.84324932
  |   13: Species O             6.56604771        0.00000000       23.57292787
  |   14: Species O             2.00627995        1.48644125       24.84969605
  |   15: Species Ti            3.28301072        0.00000000       24.84969605
  |   16: Species Ti            6.56607397        1.48644125       24.84969605
  |   17: Species O             4.55974149        1.48644125       24.84974119
  |   18: Species O             6.56610024        0.00000000       26.12646423
  |   19: Species O             3.28297132        0.00000000       26.85618792
  |   20: Species O             5.28933007        1.48644125       28.13291096
  |   21: Species Ti            6.56606084        0.00000000       28.13295610
  |   22: Species Ti            3.28299759        1.48644125       28.13295610
  |   23: Species O             1.27666511        1.48644125       28.13295610
  |   24: Species O             3.28301072        0.00000000       29.40972429
  |   25: Species O             6.56608710        2.97288250       17.00645290
  |   26: Species O             2.00631935        4.45932375       18.28322108
  |   27: Species Ti            3.28305012        2.97288250       18.28322108
  |   28: Species Ti            6.56611337        4.45932375       18.28322108
  |   29: Species O             4.55978089        4.45932375       18.28326622
  |   30: Species O             0.00000000        2.97288250       19.55998927
  |   31: Species O             3.28301072        2.97288250       20.28971295
  |   32: Species O             5.28935633        4.45932375       21.56643600
  |   33: Species Ti            6.56608710        2.97288250       21.56648113
  |   34: Species Ti            3.28302385        4.45932375       21.56648113
  |   35: Species O             1.27669137        4.45932375       21.56648113
  |   36: Species O             3.28305012        2.97288250       22.84324932
  |   37: Species F             6.56604771        2.97288250       23.57292787
  |   38: Species O             2.00627995        4.45932375       24.84969605
  |   39: Species Ti            3.28301072        2.97288250       24.84969605
  |   40: Species Ti            6.56607397        4.45932375       24.84969605
  |   41: Species O             4.55974149        4.45932375       24.84974119
  |   42: Species O             6.56610024        2.97288250       26.12646423
  |   43: Species O             3.28297132        2.97288250       26.85618792
  |   44: Species O             5.28933007        4.45932375       28.13291096
  |   45: Species Ti            6.56606084        2.97288250       28.13295610
  |   46: Species Ti            3.28299759        4.45932375       28.13295610
  |   47: Species O             1.27666511        4.45932375       28.13295610
  |   48: Species O             3.28301072        2.97288250       29.40972429
  |   49: Species O            13.13221360        0.00000000       17.00645290
  |   50: Species O             8.57244585        1.48644125       18.28322108
  |   51: Species Ti            9.84917662        0.00000000       18.28322108
  |   52: Species Ti           13.13223987        1.48644125       18.28322108
  |   53: Species O            11.12590739        1.48644125       18.28326622
  |   54: Species O             6.56612650        0.00000000       19.55998927
  |   55: Species O             9.84913722        0.00000000       20.28971295
  |   56: Species O            11.85548283        1.48644125       21.56643600
  |   57: Species Ti           13.13221360        0.00000000       21.56648113
  |   58: Species Ti            9.84915035        1.48644125       21.56648113
  |   59: Species O             7.84281787        1.48644125       21.56648113
  |   60: Species O             9.84917662        0.00000000       22.84324932
  |   61: Species O            13.13217421        0.00000000       23.57292787
  |   62: Species O             8.57240645        1.48644125       24.84969605
  |   63: Species Ti            9.84913722        0.00000000       24.84969605
  |   64: Species Ti           13.13220047        1.48644125       24.84969605
  |   65: Species O            11.12586799        1.48644125       24.84974119
  |   66: Species O            13.13222674        0.00000000       26.12646423
  |   67: Species O             9.84909782        0.00000000       26.85618792
  |   68: Species O            11.85545657        1.48644125       28.13291096
  |   69: Species Ti           13.13218734        0.00000000       28.13295610
  |   70: Species Ti            9.84912409        1.48644125       28.13295610
  |   71: Species O             7.84279161        1.48644125       28.13295610
  |   72: Species O             9.84913722        0.00000000       29.40972429
  |   73: Species O            13.13221360        2.97288250       17.00645290
  |   74: Species O             8.57244585        4.45932375       18.28322108
  |   75: Species Ti            9.84917662        2.97288250       18.28322108
  |   76: Species Ti           13.13223987        4.45932375       18.28322108
  |   77: Species O            11.12590739        4.45932375       18.28326622
  |   78: Species O             6.56612650        2.97288250       19.55998927
  |   79: Species O             9.84913722        2.97288250       20.28971295
  |   80: Species O            11.85548283        4.45932375       21.56643600
  |   81: Species Ti           13.13221360        2.97288250       21.56648113
  |   82: Species Ti            9.84915035        4.45932375       21.56648113
  |   83: Species O             7.84281787        4.45932375       21.56648113
  |   84: Species O             9.84917662        2.97288250       22.84324932
  |   85: Species O            13.13217421        2.97288250       23.57292787
  |   86: Species O             8.57240645        4.45932375       24.84969605
  |   87: Species Ti            9.84913722        2.97288250       24.84969605
  |   88: Species Ti           13.13220047        4.45932375       24.84969605
  |   89: Species O            11.12586799        4.45932375       24.84974119
  |   90: Species O            13.13222674        2.97288250       26.12646423
  |   91: Species O             9.84909782        2.97288250       26.85618792
  |   92: Species O            11.85545657        4.45932375       28.13291096
  |   93: Species Ti           13.13218734        2.97288250       28.13295610
  |   94: Species Ti            9.84912409        4.45932375       28.13295610
  |   95: Species O             7.84279161        4.45932375       28.13295610
  |   96: Species O             9.84913722        2.97288250       29.40972429

  Lattice parameters for 3D lattice (in Angstroms) :    13.132253    5.945765   45.139409
  Angle(s) between unit vectors (in degrees)       :    90.000000   90.000000   90.000000


  Quantities derived from the lattice vectors (in Angstrom^-1):
  | Reciprocal lattice vector 1:  0.478454  0.000000  0.000000
  | Reciprocal lattice vector 2:  0.000000  1.056750  0.000000
  | Reciprocal lattice vector 3:  0.000000  0.000000  0.139195
  | Unit cell volume                               :   0.352454E+04  Angstrom^3

  Fractional coordinates:
                         L1                L2                L3
       atom_frac         0.49999700        0.00000000        0.37675400  O
       atom_frac         0.15277800        0.25000000        0.40503900  O
       atom_frac         0.24999900        0.00000000        0.40503900  Ti
       atom_frac         0.49999900        0.25000000        0.40503900  Ti
       atom_frac         0.34722000        0.25000000        0.40504000  O
       atom_frac         0.00000000        0.00000000        0.43332400  O
       atom_frac         0.24999600        0.00000000        0.44949000  O
       atom_frac         0.40277600        0.25000000        0.47777400  O
       atom_frac         0.49999700        0.00000000        0.47777500  Ti
       atom_frac         0.24999700        0.25000000        0.47777500  Ti
       atom_frac         0.09721800        0.25000000        0.47777500  O
       atom_frac         0.24999900        0.00000000        0.50606000  O
       atom_frac         0.49999400        0.00000000        0.52222500  O
       atom_frac         0.15277500        0.25000000        0.55051000  O
       atom_frac         0.24999600        0.00000000        0.55051000  Ti
       atom_frac         0.49999600        0.25000000        0.55051000  Ti
       atom_frac         0.34721700        0.25000000        0.55051100  O
       atom_frac         0.49999800        0.00000000        0.57879500  O
       atom_frac         0.24999300        0.00000000        0.59496100  O
       atom_frac         0.40277400        0.25000000        0.62324500  O
       atom_frac         0.49999500        0.00000000        0.62324600  Ti
       atom_frac         0.24999500        0.25000000        0.62324600  Ti
       atom_frac         0.09721600        0.25000000        0.62324600  O
       atom_frac         0.24999600        0.00000000        0.65153100  O
       atom_frac         0.49999700        0.50000000        0.37675400  O
       atom_frac         0.15277800        0.75000000        0.40503900  O
       atom_frac         0.24999900        0.50000000        0.40503900  Ti
       atom_frac         0.49999900        0.75000000        0.40503900  Ti
       atom_frac         0.34722000        0.75000000        0.40504000  O
       atom_frac         0.00000000        0.50000000        0.43332400  O
       atom_frac         0.24999600        0.50000000        0.44949000  O
       atom_frac         0.40277600        0.75000000        0.47777400  O
       atom_frac         0.49999700        0.50000000        0.47777500  Ti
       atom_frac         0.24999700        0.75000000        0.47777500  Ti
       atom_frac         0.09721800        0.75000000        0.47777500  O
       atom_frac         0.24999900        0.50000000        0.50606000  O
       atom_frac         0.49999400        0.50000000        0.52222500  F
       atom_frac         0.15277500        0.75000000        0.55051000  O
       atom_frac         0.24999600        0.50000000        0.55051000  Ti
       atom_frac         0.49999600        0.75000000        0.55051000  Ti
       atom_frac         0.34721700        0.75000000        0.55051100  O
       atom_frac         0.49999800        0.50000000        0.57879500  O
       atom_frac         0.24999300        0.50000000        0.59496100  O
       atom_frac         0.40277400        0.75000000        0.62324500  O
       atom_frac         0.49999500        0.50000000        0.62324600  Ti
       atom_frac         0.24999500        0.75000000        0.62324600  Ti
       atom_frac         0.09721600        0.75000000        0.62324600  O
       atom_frac         0.24999600        0.50000000        0.65153100  O
       atom_frac         0.99999700        0.00000000        0.37675400  O
       atom_frac         0.65277800        0.25000000        0.40503900  O
       atom_frac         0.74999900        0.00000000        0.40503900  Ti
       atom_frac         0.99999900        0.25000000        0.40503900  Ti
       atom_frac         0.84722000        0.25000000        0.40504000  O
       atom_frac         0.50000000        0.00000000        0.43332400  O
       atom_frac         0.74999600        0.00000000        0.44949000  O
       atom_frac         0.90277600        0.25000000        0.47777400  O
       atom_frac         0.99999700        0.00000000        0.47777500  Ti
       atom_frac         0.74999700        0.25000000        0.47777500  Ti
       atom_frac         0.59721800        0.25000000        0.47777500  O
       atom_frac         0.74999900        0.00000000        0.50606000  O
       atom_frac         0.99999400        0.00000000        0.52222500  O
       atom_frac         0.65277500        0.25000000        0.55051000  O
       atom_frac         0.74999600        0.00000000        0.55051000  Ti
       atom_frac         0.99999600        0.25000000        0.55051000  Ti
       atom_frac         0.84721700        0.25000000        0.55051100  O
       atom_frac         0.99999800        0.00000000        0.57879500  O
       atom_frac         0.74999300        0.00000000        0.59496100  O
       atom_frac         0.90277400        0.25000000        0.62324500  O
       atom_frac         0.99999500        0.00000000        0.62324600  Ti
       atom_frac         0.74999500        0.25000000        0.62324600  Ti
       atom_frac         0.59721600        0.25000000        0.62324600  O
       atom_frac         0.74999600        0.00000000        0.65153100  O
       atom_frac         0.99999700        0.50000000        0.37675400  O
       atom_frac         0.65277800        0.75000000        0.40503900  O
       atom_frac         0.74999900        0.50000000        0.40503900  Ti
       atom_frac         0.99999900        0.75000000        0.40503900  Ti
       atom_frac         0.84722000        0.75000000        0.40504000  O
       atom_frac         0.50000000        0.50000000        0.43332400  O
       atom_frac         0.74999600        0.50000000        0.44949000  O
       atom_frac         0.90277600        0.75000000        0.47777400  O
       atom_frac         0.99999700        0.50000000        0.47777500  Ti
       atom_frac         0.74999700        0.75000000        0.47777500  Ti
       atom_frac         0.59721800        0.75000000        0.47777500  O
       atom_frac         0.74999900        0.50000000        0.50606000  O
       atom_frac         0.99999400        0.50000000        0.52222500  O
       atom_frac         0.65277500        0.75000000        0.55051000  O
       atom_frac         0.74999600        0.50000000        0.55051000  Ti
       atom_frac         0.99999600        0.75000000        0.55051000  Ti
       atom_frac         0.84721700        0.75000000        0.55051100  O
       atom_frac         0.99999800        0.50000000        0.57879500  O
       atom_frac         0.74999300        0.50000000        0.59496100  O
       atom_frac         0.90277400        0.75000000        0.62324500  O
       atom_frac         0.99999500        0.50000000        0.62324600  Ti
       atom_frac         0.74999500        0.75000000        0.62324600  Ti
       atom_frac         0.59721600        0.75000000        0.62324600  O
       atom_frac         0.74999600        0.50000000        0.65153100  O

  Initial moments and charges:
  |  Atom   Moment         Charge        Species
  |     1   0.000000E+00   0.000000E+00   O
  |     2   0.000000E+00   0.000000E+00   O
  |     3   0.000000E+00   0.000000E+00   Ti
  |     4   0.000000E+00   0.000000E+00   Ti
  |     5   0.000000E+00   0.000000E+00   O
  |     6   0.000000E+00   0.000000E+00   O
  |     7   0.000000E+00   0.000000E+00   O
  |     8   0.000000E+00   0.000000E+00   O
  |     9   0.000000E+00   0.000000E+00   Ti
  |    10   0.000000E+00   0.000000E+00   Ti
  |    11   0.000000E+00   0.000000E+00   O
  |    12   0.000000E+00   0.000000E+00   O
  |    13   0.000000E+00   0.000000E+00   O
  |    14   0.000000E+00   0.000000E+00   O
  |    15   0.000000E+00   0.000000E+00   Ti
  |    16   0.000000E+00   0.000000E+00   Ti
  |    17   0.000000E+00   0.000000E+00   O
  |    18   0.000000E+00   0.000000E+00   O
  |    19   0.000000E+00   0.000000E+00   O
  |    20   0.000000E+00   0.000000E+00   O
  |    21   0.000000E+00   0.000000E+00   Ti
  |    22   0.000000E+00   0.000000E+00   Ti
  |    23   0.000000E+00   0.000000E+00   O
  |    24   0.000000E+00   0.000000E+00   O
  |    25   0.000000E+00   0.000000E+00   O
  |    26   0.000000E+00   0.000000E+00   O
  |    27   0.000000E+00   0.000000E+00   Ti
  |    28   0.000000E+00   0.000000E+00   Ti
  |    29   0.000000E+00   0.000000E+00   O
  |    30   0.000000E+00   0.000000E+00   O
  |    31   0.000000E+00   0.000000E+00   O
  |    32   0.000000E+00   0.000000E+00   O
  |    33   0.000000E+00   0.000000E+00   Ti
  |    34   0.000000E+00   0.000000E+00   Ti
  |    35   0.000000E+00   0.000000E+00   O
  |    36   0.000000E+00   0.000000E+00   O
  |    37   0.000000E+00   0.000000E+00   F
  |    38   0.000000E+00   0.000000E+00   O
  |    39   0.000000E+00   0.000000E+00   Ti
  |    40   0.000000E+00   0.000000E+00   Ti
  |    41   0.000000E+00   0.000000E+00   O
  |    42   0.000000E+00   0.000000E+00   O
  |    43   0.000000E+00   0.000000E+00   O
  |    44   0.000000E+00   0.000000E+00   O
  |    45   0.000000E+00   0.000000E+00   Ti
  |    46   0.000000E+00   0.000000E+00   Ti
  |    47   0.000000E+00   0.000000E+00   O
  |    48   0.000000E+00   0.000000E+00   O
  |    49   0.000000E+00   0.000000E+00   O
  |    50   0.000000E+00   0.000000E+00   O
  |    51   0.000000E+00   0.000000E+00   Ti
  |    52   0.000000E+00   0.000000E+00   Ti
  |    53   0.000000E+00   0.000000E+00   O
  |    54   0.000000E+00   0.000000E+00   O
  |    55   0.000000E+00   0.000000E+00   O
  |    56   0.000000E+00   0.000000E+00   O
  |    57   0.000000E+00   0.000000E+00   Ti
  |    58   0.000000E+00   0.000000E+00   Ti
  |    59   0.000000E+00   0.000000E+00   O
  |    60   0.000000E+00   0.000000E+00   O
  |    61   0.000000E+00   0.000000E+00   O
  |    62   0.000000E+00   0.000000E+00   O
  |    63   0.000000E+00   0.000000E+00   Ti
  |    64   0.000000E+00   0.000000E+00   Ti
  |    65   0.000000E+00   0.000000E+00   O
  |    66   0.000000E+00   0.000000E+00   O
  |    67   0.000000E+00   0.000000E+00   O
  |    68   0.000000E+00   0.000000E+00   O
  |    69   0.000000E+00   0.000000E+00   Ti
  |    70   0.000000E+00   0.000000E+00   Ti
  |    71   0.000000E+00   0.000000E+00   O
  |    72   0.000000E+00   0.000000E+00   O
  |    73   0.000000E+00   0.000000E+00   O
  |    74   0.000000E+00   0.000000E+00   O
  |    75   0.000000E+00   0.000000E+00   Ti
  |    76   0.000000E+00   0.000000E+00   Ti
  |    77   0.000000E+00   0.000000E+00   O
  |    78   0.000000E+00   0.000000E+00   O
  |    79   0.000000E+00   0.000000E+00   O
  |    80   0.000000E+00   0.000000E+00   O
  |    81   0.000000E+00   0.000000E+00   Ti
  |    82   0.000000E+00   0.000000E+00   Ti
  |    83   0.000000E+00   0.000000E+00   O
  |    84   0.000000E+00   0.000000E+00   O
  |    85   0.000000E+00   0.000000E+00   O
  |    86   0.000000E+00   0.000000E+00   O
  |    87   0.000000E+00   0.000000E+00   Ti
  |    88   0.000000E+00   0.000000E+00   Ti
  |    89   0.000000E+00   0.000000E+00   O
  |    90   0.000000E+00   0.000000E+00   O
  |    91   0.000000E+00   0.000000E+00   O
  |    92   0.000000E+00   0.000000E+00   O
  |    93   0.000000E+00   0.000000E+00   Ti
  |    94   0.000000E+00   0.000000E+00   Ti
  |    95   0.000000E+00   0.000000E+00   O
  |    96   0.000000E+00   0.000000E+00   O

  Slab Identifier: This is Z-oriented slab and maximum thickness of the vacuum is: 32.736 Angstrom.
 
  Finished reading input file 'geometry.in'.
 

 
  Consistency checks for stacksize environment parameter are next.
 
  | Maximum stacksize for task 0: unlimited
  | Maximum stacksize for task 1: unlimited
  | Maximum stacksize for task 2: unlimited
  | Maximum stacksize for task 3: unlimited
  | Maximum stacksize for task 4: unlimited
  | Maximum stacksize for task 5: unlimited
  | Maximum stacksize for task 6: unlimited
  | Maximum stacksize for task 7: unlimited
  | Maximum stacksize for task 8: unlimited
  | Maximum stacksize for task 9: unlimited
  | Maximum stacksize for task 10: unlimited
  | Maximum stacksize for task 11: unlimited
  | Maximum stacksize for task 12: unlimited
  | Maximum stacksize for task 13: unlimited
  | Maximum stacksize for task 14: unlimited
  | Maximum stacksize for task 15: unlimited
  | Maximum stacksize for task 16: unlimited
  | Maximum stacksize for task 17: unlimited
  | Maximum stacksize for task 18: unlimited
  | Maximum stacksize for task 19: unlimited
  | Maximum stacksize for task 20: unlimited
  | Maximum stacksize for task 21: unlimited
  | Maximum stacksize for task 22: unlimited
  | Maximum stacksize for task 23: unlimited
  | Maximum stacksize for task 24: unlimited
  | Maximum stacksize for task 25: unlimited
  | Maximum stacksize for task 26: unlimited
  | Maximum stacksize for task 27: unlimited
  | Maximum stacksize for task 28: unlimited
  | Maximum stacksize for task 29: unlimited
  | Maximum stacksize for task 30: unlimited
  | Maximum stacksize for task 31: unlimited
  | Current stacksize for task 0: unlimited
  | Current stacksize for task 1: unlimited
  | Current stacksize for task 2: unlimited
  | Current stacksize for task 3: unlimited
  | Current stacksize for task 4: unlimited
  | Current stacksize for task 5: unlimited
  | Current stacksize for task 6: unlimited
  | Current stacksize for task 7: unlimited
  | Current stacksize for task 8: unlimited
  | Current stacksize for task 9: unlimited
  | Current stacksize for task 10: unlimited
  | Current stacksize for task 11: unlimited
  | Current stacksize for task 12: unlimited
  | Current stacksize for task 13: unlimited
  | Current stacksize for task 14: unlimited
  | Current stacksize for task 15: unlimited
  | Current stacksize for task 16: unlimited
  | Current stacksize for task 17: unlimited
  | Current stacksize for task 18: unlimited
  | Current stacksize for task 19: unlimited
  | Current stacksize for task 20: unlimited
  | Current stacksize for task 21: unlimited
  | Current stacksize for task 22: unlimited
  | Current stacksize for task 23: unlimited
  | Current stacksize for task 24: unlimited
  | Current stacksize for task 25: unlimited
  | Current stacksize for task 26: unlimited
  | Current stacksize for task 27: unlimited
  | Current stacksize for task 28: unlimited
  | Current stacksize for task 29: unlimited
  | Current stacksize for task 30: unlimited
  | Current stacksize for task 31: unlimited
 
  Consistency checks for the contents of control.in are next.
 
  MPI_IN_PLACE appears to work with this MPI implementation.
  | Keeping use_mpi_in_place .true. (see manual).
  Target number of points in a grid batch is not set. Defaulting to  100
  Method for grid partitioning is not set. Defaulting to parallel hash+maxmin partitioning.
  Batch size limit is not set. Defaulting to    200
  By default, will store active basis functions for each batch.
  If in need of memory, prune_basis_once .false. can be used to disable this option.
  communication_type for Hartree potential was not specified.
  Defaulting to calc_hartree .
  Defaulting to Pulay charge density mixer.
  Pulay mixer: Number of relevant iterations not set.
  Defaulting to    8 iterations.
  Pulay mixer: Number of initial linear mixing iterations not set.
  Defaulting to    0 iterations.
  Work space size for distributed Hartree potential not set.
  Defaulting to   0.200000E+03 MB.
  Mixing parameter for charge density mixing has not been set.
  Using default: charge_mix_param =     0.0500.
  The mixing parameter will be adjusted in iteration number     2 of each s.c.f. cycle (i.e., each geometry step).
  Mixing parameter for spin density mixing has not been set.
  Using charge_mix_param as default:     0.0500.
  Algorithm-dependent basis array size parameters:
  | n_max_pulay                         :        8
  Maximum number of self-consistency iterations not provided.
  Presetting  1000 iterations.
  Presetting      1001 iterations before the initial mixing cycle
  is restarted anyway using the sc_init_iter criterion / keyword.
  Presetting a factor      1.000 between actual scf density residual
  and density convergence criterion sc_accuracy_rho below which sc_init_iter
  takes no effect.
 * No s.c.f. convergence criteria (sc_accuracy_*) were provided in control.in.
 * The run will proceed with a reasonable default guess, but please check whether.
 * the s.c.f. cycles seem to take too much or too little time.
  Calculation of forces was not defined in control.in. No forces will be calculated.
  Geometry relaxation not requested: no relaxation will be performed.
 * Notice: The s.c.f. convergence criterion sc_accuracy_rho was not provided.
 * We used to stop in this case, and ask the user to provide reasonable
 * scf convergence criteria. However, this led some users to employ criteria
 * that led to extremely long run times, e.g., for simple relaxation.
 * We now preset a default value for sc_accuracy_rho if it is not set.
 * You may still wish to check if this setting is too tight or too loose for your needs.
 * Based on n_atoms and forces and force-correction status, FHI-aims chose sc_accuracy_rho =  0.400000E-05 .
  No accuracy limit for integral partition fn. given. Defaulting to  0.1000E-14.
  No threshold value for u(r) in integrations given. Defaulting to  0.1000E-05.
  No occupation type (smearing scheme) given. Defaulting to Gaussian broadening, width =  0.1000E-01 eV.
  The width will be adjusted in iteration number     2 of each s.c.f. cycle (i.e., each geometry step).
  No accuracy for occupation numbers given. Defaulting to  0.1000E-12.
  No threshold value for occupation numbers given. Defaulting to  0.0000E+00.
  No accuracy for fermi level given. Defaulting to  0.1000E-19.
  Maximum # of iterations to find E_F not set. Defaulting to  200.
  Preferred method for the eigenvalue solver ('KS_method') not specified in 'control.in'.
  Defaulting to serial version, LAPACK (via ELSI), since more k-points than CPUs available.
  Will not use alltoall communication since running on < 1024 CPUs.
  Threshold for basis singularities not set.
  Default threshold for basis singularities:  0.1000E-04
  partition_type (choice of integration weights) for integrals was not specified.
  | Using a version of the partition function of Stratmann and coworkers ('stratmann_sparse').
  | At each grid point, the set of atoms used to build the partition table is smoothly restricted to
  | only those atoms whose free-atom density would be non-zero at that grid point.
  Partitioning for Hartree potential was not defined. Using partition_type for integrals.
  | Adjusted default value of keyword multip_moments_threshold to:       0.10000000E-11
  | This value may affect high angular momentum components of the Hartree potential in periodic systems.
  Angular momentum expansion for Kerker preconditioner not set explicitly.
  | Using default value of   0
  No explicit requirement for turning off preconditioner.
  | By default, it will be turned off when the charge convergence reaches
  | sc_accuracy_rho  =   0.400000E-05
  No special mixing parameter while Kerker preconditioner is on.
  Using default: charge_mix_param =     0.0500.
  No q(lm)/r^(l+1) cutoff set for long-range Hartree potential.
  | Using default value of  0.100000E-09 .
  | Verify using the multipole_threshold keyword.
  Defaulting to new monopole extrapolation.
  Density update method: automatic selection selected.
  Using density matrix based charge density update.
  Using density matrix based charge density update.
  Using packed matrix style: index .
  Defaulting to use time-reversal symmetry for k-point grid.
  Charge integration errors on the 3D integration grid will be compensated
  by explicit normalization and distribution of residual charges.
  Use the "compensate_multipole_errors" flag to change this behaviour.
  Set 'collect_eigenvectors' to be '.true.' for all serial calculations. This is mandatory.
  Set 'collect_eigenvectors' to be '.true.' for KS_method lapack_fast and serial.
  Found potential conflicts with setting 'use_local_index' for this calculation. Will not set it.
 
  Consistency checks for the contents of geometry.in are next.
 

  Range separation radius for Ewald summation (hartree_convergence_parameter):      4.83256850 bohr.
 * Warning: Initial charge and total charge of the system are inconsistent.
 * Selected charge in control.in:     1.0000* Sum of initial charges in geometry.in:     0.0000
  Number of empty states per atom not set in control.in - providing a guess from actual geometry.
  | Total number of empty states used during s.c.f. cycle:      368
  If you use a very high smearing, use empty_states (per atom!) in control.in to increase this value.

  Structure-dependent array size parameters: 
  | Number of distinct atom types in initial rho :        3
  | Maximum number of distinct radial functions  :       23
  | Maximum number of basis functions            :     1888
  | Number of Kohn-Sham states (occupied + empty):      976
------------------------------------------------------------
  After read_input_data [GB]:   1043.91

  Performing system and environment tests:
  *** Environment variable OMP_NUM_THREADS is not set
  *** For performance reasons you might want to set it to 1
  | Checking for ScaLAPACK...
  | Testing pdtran()...
  | All pdtran() tests passed.
  After prepare_system [GB]:   1043.76

------------------------------------------------------------
          Preparing all fixed parts of the calculation.
------------------------------------------------------------
  Determining machine precision:
    2.225073858507201E-308
  Setting up grids for atomic and cluster calculations.

  Creating wave function, potential, and density for free atoms.
  Runtime choices for atomic solver:
  | atomic solver xc        : PBE
  | compute density gradient: 1
  | compute kinetic density : F

  Species: Ti

  List of occupied orbitals and eigenvalues:
    n    l              occ      energy [Ha]    energy [eV]
    1    0           2.0000      -179.959082     -4896.9358
    2    0           2.0000       -19.727662      -536.8170
    3    0           2.0000        -2.283029       -62.1244
    4    0           2.0000        -0.148384        -4.0377
    2    1           6.0000       -16.317278      -444.0157
    3    1           6.0000        -1.409348       -38.3503
    3    2           2.0000        -0.139340        -3.7916


  Species: O

  List of occupied orbitals and eigenvalues:
    n    l              occ      energy [Ha]    energy [eV]
    1    0           2.0000       -18.926989      -515.0296
    2    0           2.0000        -0.880247       -23.9527
    2    1           4.0000        -0.331514        -9.0210


  Species: F

  List of occupied orbitals and eigenvalues:
    n    l              occ      energy [Ha]    energy [eV]
    1    0           2.0000       -24.399611      -663.9472
    2    0           2.0000        -1.098702       -29.8972
    2    1           5.0000        -0.408210       -11.1080

  Spin-polarized or charged system:
  Charge density initialized according to selected moments and charges.

  Creating spin-polarized density from free atoms.

  Species: O
  Charge:   0.000000
  Moment:   0.000000

  List of occupied orbitals and eigenvalues:
    n    l      energy [Ha]    energy [eV]    occupation
  Spin-up
    1    0       -18.926989      -515.0296     1.00000000
    2    0        -0.880247       -23.9527     1.00000000
    2    1        -0.331514        -9.0210     2.00000000
  Spin-down
    1    0       -18.926989      -515.0296     1.00000000
    2    0        -0.880247       -23.9527     1.00000000
    2    1        -0.331514        -9.0210     2.00000000


  Species: Ti
  Charge:   0.000000
  Moment:   0.000000

  List of occupied orbitals and eigenvalues:
    n    l      energy [Ha]    energy [eV]    occupation
  Spin-up
    1    0      -179.959082     -4896.9358     1.00000000
    2    0       -19.727662      -536.8170     1.00000000
    3    0        -2.283029       -62.1244     1.00000000
    4    0        -0.148384        -4.0377     1.00000000
    2    1       -16.317278      -444.0157     3.00000000
    3    1        -1.409348       -38.3503     3.00000000
    3    2        -0.139340        -3.7916     1.00000000
  Spin-down
    1    0      -179.959082     -4896.9358     1.00000000
    2    0       -19.727662      -536.8170     1.00000000
    3    0        -2.283029       -62.1244     1.00000000
    4    0        -0.148384        -4.0377     1.00000000
    2    1       -16.317278      -444.0157     3.00000000
    3    1        -1.409348       -38.3503     3.00000000
    3    2        -0.139340        -3.7916     1.00000000


  Species: F
  Charge:   0.000000
  Moment:   0.000000

  List of occupied orbitals and eigenvalues:
    n    l      energy [Ha]    energy [eV]    occupation
  Spin-up
    1    0       -24.399611      -663.9472     1.00000000
    2    0        -1.098702       -29.8972     1.00000000
    2    1        -0.408210       -11.1080     2.50000000
  Spin-down
    1    0       -24.399611      -663.9472     1.00000000
    2    0        -1.098702       -29.8972     1.00000000
    2    1        -0.408210       -11.1080     2.50000000


  Adding cutoff potential to free-atom effective potential.
  Creating fixed part of basis set: Ionic, confined, hydrogenic.
 
  Ti                   ion:

  List of free ionic orbitals and eigenvalues:
    n    l      energy [Ha]    energy [eV]
    1    0      -180.819616     -4920.3521
    2    0       -20.608761      -560.7929
    3    0        -3.115729       -84.7833
    4    0        -0.697188       -18.9715
    2    1       -17.196209      -467.9327
    3    1        -2.231296       -60.7167
    3    2        -0.911363       -24.7995


  List of ionic basis orbitals and eigenvalues:
    n    l      energy [Ha]    energy [eV]    outer radius [A]
    4    1        -0.517739       -14.0884       4.592117
    4    0        -0.696824       -18.9615       4.536321

 
  Ti                   hydrogenic:
 
  List of hydrogenic basis orbitals: 
    n    l      effective z      eigenvalue [eV]  inner max. [A]     outer max. [A]     outer radius [A]   
    4    3         8.000000       -54.4222           1.059019           1.059019           4.267343
    3    2         2.700000       -10.7798           1.726925           1.726925           4.592117
 
 
  O                    hydrogenic:
 
  List of hydrogenic basis orbitals: 
    n    l      effective z      eigenvalue [eV]  inner max. [A]     outer max. [A]     outer radius [A]   
    2    1         1.800000       -10.9749           1.164242           1.164242           4.578029
    3    2         7.600000       -87.3180           0.624125           0.624125           3.251020
    3    0         6.400000       -61.9207           0.061167           1.081902           4.001998
 
 
  F                    hydrogenic:
 
  List of hydrogenic basis orbitals: 
    n    l      effective z      eigenvalue [eV]  inner max. [A]     outer max. [A]     outer radius [A]   
    2    1         1.700000        -9.7616           1.243167           1.243167           4.598524
    3    2         7.400000       -82.7828           0.642437           0.642437           3.305741
    3    0         6.800000       -69.9026           0.057798           1.022307           3.781556
 
  Creating atomic-like basis functions for current effective potential.

  Species Ti                  :

  List of atomic basis orbitals and eigenvalues:
    n    l      energy [Ha]    energy [eV]    outer radius [A]
    1    0      -179.959082     -4896.9358       0.490254
    2    0       -19.727662      -536.8170       1.491292
    3    0        -2.283029       -62.1244       4.014314
    4    0        -0.148384        -4.0377       4.592117
    2    1       -16.317278      -444.0157       1.585290
    3    1        -1.409348       -38.3503       4.267343
    3    2        -0.139340        -3.7916       4.536321


  Species O                   :

  List of atomic basis orbitals and eigenvalues:
    n    l      energy [Ha]    energy [eV]    outer radius [A]
    1    0       -18.926989      -515.0296       1.415765
    2    0        -0.880247       -23.9527       4.413171
    2    1        -0.331514        -9.0210       4.522403


  Species F                   :

  List of atomic basis orbitals and eigenvalues:
    n    l      energy [Ha]    energy [eV]    outer radius [A]
    1    0       -24.399611      -663.9472       1.258458
    2    0        -1.098702       -29.8972       4.325857
    2    1        -0.408210       -11.1080       4.487453

  Assembling full basis from fixed parts.
  | Species Ti :   atomic orbital   1 s accepted.
  | Species Ti :   atomic orbital   2 s accepted.
  | Species Ti :   atomic orbital   3 s accepted.
  | Species Ti :    ionic orbital   4 s accepted.
  | Species Ti :   atomic orbital   4 s accepted.
  | Species Ti :   atomic orbital   2 p accepted.
  | Species Ti :   atomic orbital   3 p accepted.
  | Species Ti :    ionic orbital   4 p accepted.
  | Species Ti :   atomic orbital   3 d accepted.
  | Species Ti :    hydro orbital   3 d accepted.
  | Species Ti :    hydro orbital   4 f accepted.
  | Species O :   atomic orbital   1 s accepted.
  | Species O :    hydro orbital   3 s accepted.
  | Species O :   atomic orbital   2 s accepted.
  | Species O :   atomic orbital   2 p accepted.
  | Species O :    hydro orbital   2 p accepted.
  | Species O :    hydro orbital   3 d accepted.
  | Species F :   atomic orbital   1 s accepted.
  | Species F :    hydro orbital   3 s accepted.
  | Species F :   atomic orbital   2 s accepted.
  | Species F :   atomic orbital   2 p accepted.
  | Species F :    hydro orbital   2 p accepted.
  | Species F :    hydro orbital   3 d accepted.
 
  Basis size parameters after reduction:
  | Total number of radial functions:       23
  | Total number of basis functions :     1888
 
  Per-task memory consumption for arrays in subroutine allocate_ext:
  |           6.156232MB.
  Testing on-site integration grid accuracy.
  |  Species  Function  <phi|h_atom|phi> (log., in eV)  <phi|h_atom|phi> (rad., in eV)
           1        1              -4896.9357674450              -4896.9322838106
           1        2               -536.8170048508               -536.8169722776
           1        3                -62.1243896260                -62.1243889401
           1        4                 -3.2653235630                 -3.2692838824
           1        5                  6.7987747276                  6.5460721871 ***
           1        6               -444.0157161949               -444.0157165643
           1        7                -38.3503235548                -38.3503234985
           1        8                  0.2923930877                  0.2745948114
           1        9                 -3.7933400649                 -3.7959244171
           1       10                  6.3288803616                  6.2510614935 ***
           1       11                 27.8451455747                 27.8452636415
           2       12               -515.0295626295               -515.0294562869
           2       13                 15.1698434419                 15.1699322205
           2       14                -21.6038822678                -21.6039118108
           2       15                 -9.0211123393                 -9.0212703513
           2       16                  8.3047696391                  8.2854840999
           2       17                 45.8428042125                 45.8427461223
           3       18               -663.9471986398               -663.9470363156
           3       19                 16.8514011578                 16.8512525340
           3       20                -28.4490593856                -28.4490661455
           3       21                -11.1080115307                -11.1080620174
           3       22                  7.1940182175                  7.1685154136
           3       23                 44.8544281765                 44.8543763625
 * Note: Onsite integrals marked "***" above are less accurate than
 * onsite_accuracy_threshold =    0.03000 eV. Usually, this is harmless.
 * When in doubt, tighten the "radial" and/or "radial_multiplier" flags to check.

  Preparing densities etc. for the partition functions (integrals / Hartree potential).

  Preparations completed.
  max(cpu_time)          :      0.444 s.
  Wall clock time (cpu1) :      0.442 s.
------------------------------------------------------------
  After prepare_scf [GB]:   1042.13

  Initializing index lists of integration centers etc. from given atomic structure:
  Mapping all atomic coordinates to central unit cell.

  Initializing the k-points
  Using symmetry for reducing the k-points
  | k-points reduced from:       64 to       36
  | Number of k-points                             :        36
  The eigenvectors in the calculations are COMPLEX.
  | K-points in task   0:         1
  | K-points in task   1:         2
  | K-points in task   2:         2
  | K-points in task   3:         2
  | K-points in task   4:         2
  | K-points in task   5:         1
  | K-points in task   6:         1
  | K-points in task   7:         1
  | K-points in task   8:         1
  | K-points in task   9:         1
  | K-points in task  10:         1
  | K-points in task  11:         1
  | K-points in task  12:         1
  | K-points in task  13:         1
  | K-points in task  14:         1
  | K-points in task  15:         1
  | K-points in task  16:         1
  | K-points in task  17:         1
  | K-points in task  18:         1
  | K-points in task  19:         1
  | K-points in task  20:         1
  | K-points in task  21:         1
  | K-points in task  22:         1
  | K-points in task  23:         1
  | K-points in task  24:         1
  | K-points in task  25:         1
  | K-points in task  26:         1
  | K-points in task  27:         1
  | K-points in task  28:         1
  | K-points in task  29:         1
  | K-points in task  30:         1
  | K-points in task  31:         1
  | Number of basis functions in the Hamiltonian integrals :     11515
  | Number of basis functions in a single unit cell        :      1888
  | Number of centers in hartree potential         :      3406
  | Number of centers in hartree multipole         :      1698
  | Number of centers in electron density summation:      1385
  | Number of centers in basis integrals           :      1443
  | Number of centers in integrals                 :       724
  | Number of centers in hamiltonian               :      1405
  | Consuming         25 KiB for k_phase.
  | Number of super-cells (origin) [n_cells]                     :         135
  | Number of super-cells (after PM_index) [n_cells]             :          46
  | Number of super-cells in hamiltonian [n_cells_in_hamiltonian]:          46
  | Size of matrix packed + index [n_hamiltonian_matrix_size] :     3223697
  After initialize_bc_dependent_lists [GB]:   1042.09

------------------------------------------------------------
          Begin self-consistency loop: Initialization.

          Date     :  20241012, Time     :  232225.156
------------------------------------------------------------
  Available memory per node after initialize_hartree_non_periodic_ewald [GB]:   1042.09
  | Estimated reciprocal-space cutoff momentum G_max:         1.91143177 bohr^-1 .
  | Reciprocal lattice points for long-range Hartree potential:    2834
  Available memory per node after initialize_recip_hartree_potential [GB]:   1042.09
  Available memory per node after initialize_scalapack [GB]:   1042.09
  Available memory per node after aims_elsi_init_scf [GB]:   1042.09
  Available memory per node after initialize_fixed_grids [GB]:   1042.09
  Partitioning the integration grid into batches with parallel hashing+maxmin method.
  | Number of batches:     7897
  | Maximal batch size:     176
  | Minimal batch size:      18
  | Average batch size:      77.814
  | Standard deviation of batch sizes:      28.051

  Integration load balanced across    32 MPI tasks.
  Work distribution over tasks is as follows:
  Task     0 has      19229 integration points.
  Task     1 has      19228 integration points.
  Task     2 has      19201 integration points.
  Task     3 has      19199 integration points.
  Task     4 has      19210 integration points.
  Task     5 has      19172 integration points.
  Task     6 has      19207 integration points.
  Task     7 has      19174 integration points.
  Task     8 has      19205 integration points.
  Task     9 has      19181 integration points.
  Task    10 has      19231 integration points.
  Task    11 has      19227 integration points.
  Task    12 has      19171 integration points.
  Task    13 has      19232 integration points.
  Task    14 has      19200 integration points.
  Task    15 has      19170 integration points.
  Task    16 has      19204 integration points.
  Task    17 has      19229 integration points.
  Task    18 has      19228 integration points.
  Task    19 has      19179 integration points.
  Task    20 has      19224 integration points.
  Task    21 has      19234 integration points.
  Task    22 has      19179 integration points.
  Task    23 has      19230 integration points.
  Task    24 has      19178 integration points.
  Task    25 has      19174 integration points.
  Task    26 has      19187 integration points.
  Task    27 has      19202 integration points.
  Task    28 has      19203 integration points.
  Task    29 has      19186 integration points.
  Task    30 has      19201 integration points.
  Task    31 has      19223 integration points.
  Available memory per node after partition_grid [GB]:   1042.09
  Initializing partition tables, free-atom densities, potentials, etc. across the integration grid (initialize_grid_storage).
  | initialize_grid_storage: Actual outermost partition radius vs. multipole_radius_free
  | (-- VB: in principle, multipole_radius_free should be larger, hence this output)
  | Species        1: Confinement radius =              4.999999999999999 AA, multipole_radius_free =              5.002391649902235 AA.
  | Species        1: outer_partition_radius set to              5.002391649902235 AA .
  | Species        2: Confinement radius =              4.999999999999999 AA, multipole_radius_free =              5.048384829883283 AA.
  | Species        2: outer_partition_radius set to              5.048384829883283 AA .
  | Species        3: Confinement radius =              4.999999999999999 AA, multipole_radius_free =              5.009370088163274 AA.
  | Species        3: outer_partition_radius set to              5.009370088163274 AA .
  | The sparse table of interatomic distances needs       3538.77 kbyte instead of     16657.99 kbyte of memory.
  | Net number of integration points:   614498
  | of which are non-zero points    :   508168
  | Numerical average free-atom electrostatic potential    :     -5.14852845 eV
  Available memory per node after initialize_grid_storage_p1 [GB]:   1042.08
  Renormalizing the initial density to the exact electron count on the 3D integration grid.
  | Initial density: Formal number of electrons (from input files) :    1217.0000000000
  | Integrated number of electrons on 3D grid     :    1216.9949143067
  | Charge integration error                      :      -0.0050856933
  | Normalization factor for density and gradient :       1.0000041789
  Renormalizing the free-atom superposition density to the exact electron count on the 3D integration grid.
  | Formal number of electrons (from input files) :    1216.0000000000
  | Integrated number of electrons on 3D grid     :    1216.9949143067
  | Charge integration error                      :      -0.0050856933
  | Normalization factor for density and gradient :       1.0000041789
  Obtaining max. number of non-zero basis functions in each batch (get_n_compute_maxes).
  | Maximal number of non-zero basis functions:      851 in task     0
  | Maximal number of non-zero basis functions:      838 in task     1
  | Maximal number of non-zero basis functions:      838 in task     2
  | Maximal number of non-zero basis functions:      836 in task     3
  | Maximal number of non-zero basis functions:      848 in task     4
  | Maximal number of non-zero basis functions:      826 in task     5
  | Maximal number of non-zero basis functions:      848 in task     6
  | Maximal number of non-zero basis functions:      858 in task     7
  | Maximal number of non-zero basis functions:      840 in task     8
  | Maximal number of non-zero basis functions:      856 in task     9
  | Maximal number of non-zero basis functions:      840 in task    10
  | Maximal number of non-zero basis functions:      834 in task    11
  | Maximal number of non-zero basis functions:      874 in task    12
  | Maximal number of non-zero basis functions:      862 in task    13
  | Maximal number of non-zero basis functions:      836 in task    14
  | Maximal number of non-zero basis functions:      872 in task    15
  | Maximal number of non-zero basis functions:      844 in task    16
  | Maximal number of non-zero basis functions:      832 in task    17
  | Maximal number of non-zero basis functions:      841 in task    18
  | Maximal number of non-zero basis functions:      846 in task    19
  | Maximal number of non-zero basis functions:      888 in task    20
  | Maximal number of non-zero basis functions:      849 in task    21
  | Maximal number of non-zero basis functions:      840 in task    22
  | Maximal number of non-zero basis functions:      833 in task    23
  | Maximal number of non-zero basis functions:      862 in task    24
  | Maximal number of non-zero basis functions:      856 in task    25
  | Maximal number of non-zero basis functions:      837 in task    26
  | Maximal number of non-zero basis functions:      840 in task    27
  | Maximal number of non-zero basis functions:      878 in task    28
  | Maximal number of non-zero basis functions:      872 in task    29
  | Maximal number of non-zero basis functions:      844 in task    30
  | Maximal number of non-zero basis functions:      841 in task    31
  Available memory per node after get_n_compute_maxes_p1 [GB]:   1042.06
  Initialize hartree_potential_storage
  Max. number of atoms included in rho_multipole:           96

  Evaluating partitioned Hartree potential by multipole expansion.
  | Original multipole sum: apparent total charge =  -0.533925E-12
  | Sum of charges compensated after spline to logarithmic grids =   0.000000E+00
  | Analytical far-field extrapolation by fixed multipoles:
  | Hartree multipole sum: apparent total charge =   0.000000E+00
  Summing up the Hartree potential.
  | Ewald reciprocal-space coefficients, myid =     0 : cpu      0.001 s, wall      0.001 s.
  | Ewald reciprocal-space coefficients, myid =     1 : cpu      0.001 s, wall      0.001 s.
  | Ewald reciprocal-space coefficients, myid =     2 : cpu      0.001 s, wall      0.001 s.
  | Ewald reciprocal-space coefficients, myid =     3 : cpu      0.001 s, wall      0.001 s.
  | Ewald reciprocal-space coefficients, myid =     4 : cpu      0.001 s, wall      0.001 s.
  | Ewald reciprocal-space coefficients, myid =     5 : cpu      0.001 s, wall      0.001 s.
  | Ewald reciprocal-space coefficients, myid =     6 : cpu      0.001 s, wall      0.001 s.
  | Ewald reciprocal-space coefficients, myid =     7 : cpu      0.001 s, wall      0.001 s.
  | Ewald reciprocal-space coefficients, myid =     8 : cpu      0.001 s, wall      0.001 s.
  | Ewald reciprocal-space coefficients, myid =     9 : cpu      0.001 s, wall      0.001 s.
  | Ewald reciprocal-space coefficients, myid =    10 : cpu      0.001 s, wall      0.001 s.
  | Ewald reciprocal-space coefficients, myid =    11 : cpu      0.001 s, wall      0.001 s.
  | Ewald reciprocal-space coefficients, myid =    12 : cpu      0.001 s, wall      0.001 s.
  | Ewald reciprocal-space coefficients, myid =    13 : cpu      0.001 s, wall      0.001 s.
  | Ewald reciprocal-space coefficients, myid =    14 : cpu      0.001 s, wall      0.001 s.
  | Ewald reciprocal-space coefficients, myid =    15 : cpu      0.001 s, wall      0.001 s.
  | Ewald reciprocal-space coefficients, myid =    16 : cpu      0.001 s, wall      0.001 s.
  | Ewald reciprocal-space coefficients, myid =    17 : cpu      0.001 s, wall      0.001 s.
  | Ewald reciprocal-space coefficients, myid =    18 : cpu      0.001 s, wall      0.001 s.
  | Ewald reciprocal-space coefficients, myid =    19 : cpu      0.001 s, wall      0.001 s.
[...]
  |    26        8.626893       -0.626893        3.859403        4.756677        0.010814
  |    27       20.715824        1.284176        6.089765       12.431322        2.072637        0.122099
  |    28       20.934969        1.065031        6.049380       12.515383        2.226225        0.143981
  |    29        8.632560       -0.632560        3.858639        4.763223        0.010698
  |    30        8.625182       -0.625182        3.842777        4.772013        0.010393
  |    31        8.583921       -0.583921        3.844118        4.729781        0.010022
  |    32        8.628041       -0.628041        3.847259        4.770803        0.009980
  |    33       20.756638        1.243362        5.970608       12.480861        2.165163        0.140006
  |    34       20.730980        1.269020        5.960720       12.501225        2.124330        0.144705
  |    35        8.621534       -0.621534        3.847122        4.764665        0.009747
  |    36        8.625586       -0.625586        3.846724        4.768911        0.009951
  |    37        9.437289       -0.437289        3.932472        5.492833        0.011984
  |    38        8.616505       -0.616505        3.847663        4.759044        0.009798
  |    39       20.753852        1.246148        5.963220       12.506469        2.139963        0.144199
  |    40       20.726338        1.273662        5.964813       12.486912        2.132782        0.141830
  |    41        8.628689       -0.628689        3.846379        4.772561        0.009748
  |    42        8.581084       -0.581084        3.844121        4.726887        0.010076
  |    43        8.625784       -0.625784        3.842689        4.772698        0.010398
  |    44        8.625747       -0.625747        3.859505        4.755308        0.010934
  |    45       20.715668        1.284332        6.087097       12.433164        2.072934        0.122473
  |    46       20.935097        1.064903        6.049004       12.514923        2.226981        0.144188
  |    47        8.630545       -0.630545        3.858955        4.760894        0.010696
  |    48        8.440900       -0.440900        3.885474        4.544061        0.011365
  |    49        8.443856       -0.443856        3.885171        4.547346        0.011339
  |    50        8.632562       -0.632562        3.858639        4.763225        0.010698
  |    51       20.715580        1.284420        6.089729       12.431284        2.072466        0.122102
  |    52       20.934885        1.065115        6.049012       12.515051        2.226624        0.144199
  |    53        8.626891       -0.626891        3.859402        4.756675        0.010814
  |    54        8.621628       -0.621628        3.843472        4.767745        0.010411
  |    55        8.584248       -0.584248        3.844208        4.730027        0.010013
  |    56        8.621532       -0.621532        3.847122        4.764662        0.009747
  |    57       20.744517        1.255483        5.961911       12.505111        2.133368        0.144128
  |    58       20.730980        1.269020        5.960720       12.501225        2.124330        0.144705
  |    59        8.628044       -0.628044        3.847259        4.770806        0.009980
  |    60        8.619696       -0.619696        3.847356        4.762397        0.009943
  |    61        8.616374       -0.616374        3.848079        4.758281        0.010014
  |    62        8.628689       -0.628689        3.846379        4.772561        0.009748
  |    63       20.741538        1.258462        5.961281       12.504286        2.131963        0.144008
  |    64       20.731497        1.268503        5.959767       12.501880        2.125093        0.144757
  |    65        8.616505       -0.616505        3.847663        4.759044        0.009798
  |    66        8.585440       -0.585440        3.844019        4.731391        0.010029
  |    67        8.626212       -0.626212        3.842776        4.773046        0.010391
  |    68        8.630548       -0.630548        3.858954        4.760897        0.010696
  |    69       20.715987        1.284013        6.090363       12.430918        2.072696        0.122010
  |    70       20.935096        1.064904        6.049004       12.514923        2.226981        0.144188
  |    71        8.625743       -0.625743        3.859506        4.755304        0.010934
  |    72        8.441164       -0.441164        3.885426        4.544372        0.011366
  |    73        8.443827       -0.443827        3.885178        4.547310        0.011339
  |    74        8.632562       -0.632562        3.858639        4.763225        0.010698
  |    75       20.715824        1.284176        6.089765       12.431322        2.072637        0.122099
  |    76       20.934885        1.065115        6.049012       12.515051        2.226624        0.144199
  |    77        8.626891       -0.626891        3.859402        4.756675        0.010814
  |    78        8.611936       -0.611936        3.843271        4.758147        0.010518
  |    79        8.583921       -0.583921        3.844118        4.729781        0.010022
  |    80        8.621532       -0.621532        3.847122        4.764662        0.009747
  |    81       20.744559        1.255441        5.961856       12.505143        2.133433        0.144126
  |    82       20.730980        1.269020        5.960720       12.501225        2.124330        0.144705
  |    83        8.628044       -0.628044        3.847259        4.770806        0.009980
  |    84        8.625583       -0.625583        3.846724        4.768908        0.009951
  |    85        8.616480       -0.616480        3.848073        4.758393        0.010014
  |    86        8.628689       -0.628689        3.846379        4.772561        0.009748
  |    87       20.753851        1.246149        5.963220       12.506469        2.139963        0.144199
  |    88       20.731497        1.268503        5.959767       12.501880        2.125093        0.144757
  |    89        8.616505       -0.616505        3.847663        4.759044        0.009798
  |    90        8.585467       -0.585467        3.844032        4.731406        0.010029
  |    91        8.625785       -0.625785        3.842688        4.772698        0.010398
  |    92        8.630548       -0.630548        3.858954        4.760897        0.010696
  |    93       20.715946        1.284054        6.090391       12.430906        2.072637        0.122013
  |    94       20.935096        1.064904        6.049004       12.514923        2.226981        0.144188
  |    95        8.625743       -0.625743        3.859506        4.755304        0.010934
  |    96        8.440900       -0.440900        3.885474        4.544061        0.011365
  |
  | Total     1216.000000        1.000000
 
  Summary of the per-atom spin analysis:
  |
  |  atom   spin      l=0         l=1         l=2         l=3
  |     1   -0.000000   -0.000000    0.000000    0.000000
  |     2   -0.000000   -0.000000   -0.000000   -0.000000
  |     3   -0.000000   -0.000000    0.000000   -0.000000    0.000000
  |     4   -0.000000   -0.000000   -0.000000    0.000000    0.000000
  |     5    0.000000    0.000000   -0.000000   -0.000000
  |     6    0.000000    0.000000    0.000000   -0.000000
  |     7   -0.000000   -0.000000    0.000000   -0.000000
  |     8   -0.000000    0.000000   -0.000000   -0.000000
  |     9    0.000000   -0.000000    0.000000    0.000000    0.000000
  |    10    0.000000   -0.000000    0.000000    0.000000    0.000000
  |    11   -0.000000   -0.000000   -0.000000   -0.000000
  |    12   -0.000000    0.000000   -0.000000   -0.000000
  |    13   -0.000000   -0.000000    0.000000   -0.000000
  |    14   -0.000000    0.000000   -0.000000   -0.000000
  |    15    0.000000    0.000000    0.000000    0.000000   -0.000000
  |    16    0.000000    0.000000    0.000000    0.000000   -0.000000
  |    17    0.000000    0.000000   -0.000000    0.000000
  |    18   -0.000000    0.000000   -0.000000   -0.000000
  |    19    0.000000   -0.000000    0.000000    0.000000
  |    20    0.000000   -0.000000    0.000000    0.000000
  |    21    0.000000    0.000000   -0.000000   -0.000000    0.000000
  |    22   -0.000000   -0.000000   -0.000000   -0.000000    0.000000
  |    23    0.000000    0.000000    0.000000    0.000000
  |    24    0.000000   -0.000000    0.000000    0.000000
  |    25    0.000000    0.000000   -0.000000   -0.000000
  |    26    0.000000    0.000000    0.000000   -0.000000
  |    27    0.000000    0.000000    0.000000    0.000000    0.000000
  |    28   -0.000000   -0.000000   -0.000000    0.000000    0.000000
  |    29   -0.000000   -0.000000   -0.000000    0.000000
  |    30   -0.000000    0.000000   -0.000000    0.000000
  |    31    0.000000    0.000000    0.000000   -0.000000
  |    32    0.000000   -0.000000    0.000000   -0.000000
  |    33    0.000000    0.000000    0.000000    0.000000    0.000000
  |    34   -0.000000   -0.000000    0.000000    0.000000    0.000000
  |    35    0.000000    0.000000    0.000000    0.000000
  |    36   -0.000000   -0.000000   -0.000000    0.000000
  |    37    0.000000    0.000000    0.000000   -0.000000
  |    38    0.000000    0.000000    0.000000   -0.000000
  |    39    0.000000    0.000000   -0.000000   -0.000000   -0.000000
  |    40   -0.000000   -0.000000    0.000000    0.000000    0.000000
  |    41    0.000000    0.000000   -0.000000   -0.000000
  |    42   -0.000000   -0.000000    0.000000    0.000000
  |    43    0.000000    0.000000    0.000000   -0.000000
  |    44   -0.000000   -0.000000    0.000000   -0.000000
  |    45   -0.000000   -0.000000   -0.000000   -0.000000   -0.000000
  |    46    0.000000   -0.000000    0.000000   -0.000000   -0.000000
  |    47    0.000000   -0.000000    0.000000   -0.000000
  |    48    0.000000    0.000000    0.000000    0.000000
  |    49   -0.000000   -0.000000    0.000000    0.000000
  |    50   -0.000000   -0.000000   -0.000000    0.000000
  |    51   -0.000000   -0.000000   -0.000000   -0.000000   -0.000000
  |    52    0.000000    0.000000    0.000000   -0.000000   -0.000000
  |    53    0.000000    0.000000   -0.000000    0.000000
  |    54   -0.000000   -0.000000   -0.000000   -0.000000
  |    55    0.000000    0.000000    0.000000    0.000000
  |    56   -0.000000   -0.000000    0.000000   -0.000000
  |    57    0.000000    0.000000    0.000000   -0.000000   -0.000000
  |    58   -0.000000   -0.000000    0.000000    0.000000    0.000000
  |    59   -0.000000   -0.000000   -0.000000   -0.000000
  |    60    0.000000    0.000000    0.000000    0.000000
  |    61   -0.000000    0.000000   -0.000000    0.000000
  |    62    0.000000    0.000000    0.000000   -0.000000
  |    63    0.000000    0.000000   -0.000000   -0.000000   -0.000000
  |    64    0.000000    0.000000    0.000000    0.000000    0.000000
  |    65   -0.000000   -0.000000   -0.000000   -0.000000
  |    66   -0.000000   -0.000000   -0.000000   -0.000000
  |    67    0.000000    0.000000    0.000000    0.000000
  |    68   -0.000000   -0.000000    0.000000    0.000000
  |    69    0.000000    0.000000    0.000000    0.000000    0.000000
  |    70    0.000000    0.000000    0.000000    0.000000    0.000000
  |    71   -0.000000    0.000000   -0.000000    0.000000
  |    72   -0.000000   -0.000000    0.000000    0.000000
  |    73   -0.000000   -0.000000    0.000000    0.000000
  |    74   -0.000000   -0.000000   -0.000000    0.000000
  |    75   -0.000000   -0.000000   -0.000000    0.000000   -0.000000
  |    76   -0.000000   -0.000000    0.000000   -0.000000   -0.000000
  |    77    0.000000    0.000000    0.000000    0.000000
  |    78   -0.000000    0.000000   -0.000000    0.000000
  |    79    0.000000    0.000000    0.000000    0.000000
  |    80    0.000000    0.000000    0.000000    0.000000
  |    81   -0.000000   -0.000000    0.000000    0.000000   -0.000000
  |    82   -0.000000   -0.000000   -0.000000    0.000000   -0.000000
  |    83   -0.000000   -0.000000   -0.000000   -0.000000
  |    84    0.000000    0.000000    0.000000    0.000000
  |    85   -0.000000    0.000000   -0.000000   -0.000000
  |    86   -0.000000   -0.000000    0.000000   -0.000000
  |    87    0.000000    0.000000   -0.000000    0.000000    0.000000
  |    88   -0.000000   -0.000000    0.000000    0.000000    0.000000
  |    89    0.000000   -0.000000    0.000000   -0.000000
  |    90   -0.000000   -0.000000   -0.000000   -0.000000
  |    91   -0.000000    0.000000   -0.000000    0.000000
  |    92   -0.000000    0.000000   -0.000000   -0.000000
  |    93   -0.000000    0.000000   -0.000000   -0.000000    0.000000
  |    94    0.000000    0.000000    0.000000    0.000000    0.000000
  |    95    0.000000   -0.000000    0.000000    0.000000
  |    96   -0.000000    0.000000   -0.000000    0.000000
  |
  | Total   -0.000000
 
  Writing Mulliken decomposition to disk ...

  Mulliken analysis                                       :  max(cpu_time)    wall_clock(cpu1)
  | Time for Mulliken analysis                            :         64.935              64.956
  | Total time for Mulliken analysis                      :         64.935              64.956
------------------------------------------------------------

------------------------------------------------------------------------------
  Final output of selected total energy values:

  The following output summarizes some interesting total energy values
  at the end of a run (AFTER all relaxation, molecular dynamics, etc.).

  | Total energy of the DFT / Hartree-Fock s.c.f. calculation      :        -875318.951378556 eV
  | Final zero-broadening corrected energy (caution - metals only) :        -875318.951378556 eV
  | For reference only, the value of 1 Hartree used in FHI-aims is :             27.211384500 eV
  | For reference only, the overall average (free atom contribution
  | + realspace contribution) of the electrostatic potential after
  | s.c.f. convergence is                                          :             -5.020169830 eV

  Before relying on these values, please be sure to understand exactly which
  total energy value is referred to by a given number. Different objects may
  all carry the same name 'total energy'. Definitions:

  Total energy of the DFT / Hartree-Fock s.c.f. calculation:
  | Note that this energy does not include ANY quantities calculated after the
  | s.c.f. cycle, in particular not ANY RPA, MP2, etc. many-body perturbation terms.
  | Scalar relativistic effects have been included in the 'scaled ZORA' approximation.

  Final zero-broadening corrected energy:
  | For metallic systems only, a broadening of the occupation numbers at the Fermi
  | level can be extrapolated back to zero broadening by an electron-gas inspired
  | formula. For all systems that are not real metals, this value can be
  | meaningless and should be avoided.

------------------------------------------------------------------------------
  Methods described in the following list of references were used in this FHI-aims run.
  If you publish the results, please make sure to cite these reference if they apply.
  FHI-aims is an academic code, and for our developers (often, Ph.D. students
  and postdocs), scientific credit in the community is essential.
  Thank you for helping us!

  For any use of FHI-aims, please cite:

    Volker Blum, Ralf Gehrke, Felix Hanke, Paula Havu, Ville Havu,
    Xinguo Ren, Karsten Reuter, and Matthias Scheffler
    'Ab initio molecular simulations with numeric atom-centered orbitals'
    Computer Physics Communications 180, 2175-2196 (2009)
    http://doi.org/10.1016/j.cpc.2009.06.022


  The provided symmetry information was generated with SPGlib:

    Atsushi Togo, Yusuke Seto, Dimitar Pashov
    SPGlib 1.7.3 obtained from http://spglib.sourceforge.net
    Licence: New BSD license
    Copyright (C) 2008 Atsushi Togo


  The ELSI infrastructure was used in your run to solve the Kohn-Sham electronic structure.
  Please check out https://wordpress.elsi-interchange.org to learn more.
  If scalability is important for your project, please acknowledge ELSI by citing:

    V. W-z. Yu, F. Corsetti, A. Garcia, W. P. Huhn, M. Jacquelin, W. Jia,
    B. Lange, L. Lin, J. Lu, W. Mi, A. Seifitokaldani, A. Vazquez-Mayagoitia,
    C. Yang, H. Yang, and V. Blum
    'ELSI: A unified software interface for Kohn-Sham electronic structure solvers'
    Computer Physics Communications 222, 267-285 (2018).
    http://doi.org/10.1016/j.cpc.2017.09.007


  For the real-space grid partitioning and parallelization used in this calculation, please cite:

    Ville Havu, Volker Blum, Paula Havu, and Matthias Scheffler,
    'Efficient O(N) integration for all-electron electronic structure calculation'
    'using numerically tabulated basis functions'
    Journal of Computational Physics 228, 8367-8379 (2009).
    http://doi.org/10.1016/j.jcp.2009.08.008

  Of course, there are many other important community references, e.g., those cited in the
  above references. Our list is limited to references that describe implementations in the
  FHI-aims code. The reason is purely practical (length of this list) - please credit others as well.

------------------------------------------------------------
          Leaving FHI-aims.
          Date     :  20241012, Time     :  233951.626

          Computational steps:
          | Number of self-consistency cycles          :           22
          | Number of SCF (re)initializations          :            1

          Detailed time accounting                     :  max(cpu_time)    wall_clock(cpu1)
          | Total time                                  :     1046.904 s        1047.024 s
          | Preparation time                            :        0.444 s           0.442 s
          | Boundary condition initalization            :        0.066 s           0.066 s
          | Grid partitioning                           :        0.705 s           0.705 s
          | Preloading free-atom quantities on grid     :        1.292 s           1.292 s
          | Free-atom superposition energy              :        0.151 s           0.151 s
          | Total time for integrations                 :      108.052 s         108.058 s
          | Total time for solution of K.-S. equations  :      456.243 s         456.266 s
          | Total time for density update               :      121.460 s         121.472 s
          | Total time for mixing & preconditioning     :      207.904 s         207.922 s
          | Total time for Hartree multipole update     :        0.123 s           0.123 s
          | Total time for Hartree multipole sum        :       12.416 s          12.418 s
          | Total time for total energy evaluation      :        0.040 s           0.041 s
          | Total time for scaled ZORA corrections      :       73.159 s          73.166 s
          | Total time for Mulliken analysis            :       64.953 s          64.956 s

          Partial memory accounting:
          | Residual value for overall tracked memory usage across tasks:     0.000000 MB (should be 0.000000 MB)
          | Peak values for overall tracked memory usage:
          |   Minimum:      408.586 MB (on task 15 after allocating eval_tmp)
          |   Maximum:      464.885 MB (on task  1 after allocating eval_tmp)
          |   Average:      415.652 MB
          | Largest tracked array allocation:
          |   Minimum:       56.234 MB (KS_eigenvector_complex on task  0)
          |   Maximum:      112.469 MB (KS_eigenvector_complex on task  1)
          |   Average:       63.264 MB
          Note:  These values currently only include a subset of arrays which are explicitly tracked.
          The "true" memory usage will be greater.

          Have a nice day.
------------------------------------------------------------
