------------------------------------------------------------
          Invoking FHI-aims ...

          When using FHI-aims, please cite the following reference:

            Volker Blum, Ralf Gehrke, Felix Hanke, Paula Havu,
            Ville Havu, Xinguo Ren, Karsten Reuter, and Matthias Scheffler,
            'Ab Initio Molecular Simulations with Numeric Atom-Centered Orbitals',
            Computer Physics Communications 180, 2175-2196 (2009)

          In addition, many other developments in FHI-aims are likely important for
          your particular application. If so, please cite them. A partial list of references
          is written at the end of this file. Thank you for giving credit to the authors
          of these developments.

          For general information about FHI-aims please find us at

            https://fhi-aims.org

          Online tutorials can be found at

            https://fhi-aims-club.gitlab.io/tutorials/tutorials-overview/

          For any questions about FHI-aims, please visit our slack channel at

            https://fhi-aims.slack.com

          and our main development and support site at

            https://aims-git.rz-berlin.mpg.de .

          The latter site, in particular, has a wiki to collect information, as well
          as an issue tracker to log discussions, suggest improvements, and report issues
          or bugs. https://aims-git.rz-berlin.mpg.de is also the main development site
          of the project and all new and updated code versions can be obtained there.
          Please send an email to aims-coordinators@fhi-berlin.mpg.de and we will add
          you to these sites. They are for you and everyone is welcome there.

------------------------------------------------------------



  Date     :  20241019, Time     :  150524.258
  Time zero on CPU 1             :   0.459878000000000E+00  s.
  Internal wall clock time zero  :           498582324.258  s.

  FHI-aims created a unique identifier for this run for later identification
  aims_uuid : F0A4B7DD-7DDE-48D2-A3FA-E00D344AFD1D

  Build configuration of the current instance of FHI-aims
  -------------------------------------------------------
  FHI-aims version      : 240605
  Commit number         : b001b2e18
  CMake host system     : Linux-6.5.0-41-generic
  CMake version         : 3.22.1
  Fortran compiler      : /opt/intel/oneapi/mpi/2021.12/bin/mpiifort (IntelLLVM) version 2024.1.0
  Fortran compiler flags: -fc=ifx -O3 -ip -fp-model precise
  C compiler            : /opt/intel/oneapi/mpi/2021.12/bin/mpiicc (IntelLLVM) version 2024.1.0
  C compiler flags      : -cc=icx -O3 -ip -fp-model precise -std=gnu99
  C++ compiler          : /opt/intel/oneapi/mpi/2021.12/bin/mpiicpc (IntelLLVM) version 2024.1.0
  C++ compiler flags    : -cxx=icpx -O3 -ip -fp-model precise -std=c++11
  HIP compiler          :
  HIP compiler flags    :
  HIP GPU arch          :
  Using MPI
  Using ScaLAPACK
  Using LibXC
  Using i-PI
  Using RLSY
  Linking against: /opt/intel/oneapi/mkl/2024.1/lib/intel64/libmkl_intel_lp64.so
                   /opt/intel/oneapi/mkl/2024.1/lib/intel64/libmkl_sequential.so
                   /opt/intel/oneapi/mkl/2024.1/lib/intel64/libmkl_core.so
                   /opt/intel/oneapi/mkl/2024.1/lib/intel64/libmkl_blacs_intelmpi_lp64.so
                   /opt/intel/oneapi/mkl/2024.1/lib/intel64/libmkl_scalapack_lp64.so
                   /opt/intel/oneapi/mkl/2024.1/lib/intel64/libmkl_core.so

  Using       32 parallel tasks.
  Task        0 on host RSL-arvutus reporting.
  Task        1 on host RSL-arvutus reporting.
  Task        2 on host RSL-arvutus reporting.
  Task        3 on host RSL-arvutus reporting.
  Task        4 on host RSL-arvutus reporting.
  Task        5 on host RSL-arvutus reporting.
  Task        6 on host RSL-arvutus reporting.
  Task        7 on host RSL-arvutus reporting.
  Task        8 on host RSL-arvutus reporting.
  Task        9 on host RSL-arvutus reporting.
  Task       10 on host RSL-arvutus reporting.
  Task       11 on host RSL-arvutus reporting.
  Task       12 on host RSL-arvutus reporting.
  Task       13 on host RSL-arvutus reporting.
  Task       14 on host RSL-arvutus reporting.
  Task       15 on host RSL-arvutus reporting.
  Task       16 on host RSL-arvutus reporting.
  Task       17 on host RSL-arvutus reporting.
  Task       18 on host RSL-arvutus reporting.
  Task       19 on host RSL-arvutus reporting.
  Task       20 on host RSL-arvutus reporting.
  Task       21 on host RSL-arvutus reporting.
  Task       22 on host RSL-arvutus reporting.
  Task       23 on host RSL-arvutus reporting.
  Task       24 on host RSL-arvutus reporting.
  Task       25 on host RSL-arvutus reporting.
  Task       26 on host RSL-arvutus reporting.
  Task       27 on host RSL-arvutus reporting.
  Task       28 on host RSL-arvutus reporting.
  Task       29 on host RSL-arvutus reporting.
  Task       30 on host RSL-arvutus reporting.
  Task       31 on host RSL-arvutus reporting.

  Memory overcommitment is allowed on your operating system.

  Obtaining array dimensions for all initial allocations:
  
  -----------------------------------------------------------------------
  Parsing control.in (first pass over file, find array dimensions only).
  The contents of control.in will be repeated verbatim below
  unless switched off by setting 'verbatim_writeout .false.' .
  in the first line of control.in .
  -----------------------------------------------------------------------
  
    xc              pbe
    relativistic    zora scalar 1.0e-12
    k_grid          4 4 6
  
    output          Mulliken
  
  
  ################################################################################
  #
  #  FHI-aims code project
  #  VB, Fritz-Haber Institut, 2009
  #
  #  Suggested "light" defaults for Ti atom (to be pasted into control.in file)
  #  Be sure to double-check any results obtained with these settings for post-processing,
  #  e.g., with the "tight" defaults and larger basis sets.
  #
  ################################################################################
    species        Ti
  #     global species definitions
      nucleus             22
      mass                47.867
  #
      l_hartree           4
  #
      cut_pot             3.5          1.5  1.0
      basis_dep_cutoff    1e-4
  #
      radial_base         48 5.0
      radial_multiplier   1
      angular_grids       specified
        division   0.5171   50
        division   0.9824  110
        division   1.2917  194
        division   1.4940  302
  #      division   1.6934  434
  #      division   1.8425  590
  #      division   2.1901  770
  #      division   2.2896  974
  #      division   2.8244 1202
  #      outer_grid  974
        outer_grid  302
  ################################################################################
  #
  #  Definition of "minimal" basis
  #
  ################################################################################
  #     valence basis states
      valence      4  s   2.
      valence      3  p   6.
      valence      3  d   2.
  #     ion occupancy
      ion_occ      4  s   1.
      ion_occ      3  p   6.
      ion_occ      3  d   1.
  ################################################################################
  #
  #  Suggested additional basis functions. For production calculations,
  #  uncomment them one after another (the most important basis functions are
  #  listed first).
  #
  #  Constructed for dimers: 1.6 A, 1.85 A, 2.5 A, 3.25 A, 4.25 A
  #
  ################################################################################
  #  "First tier" - improvements: -396.25 meV to -19.41 meV
       hydro 4 f 8
       hydro 3 d 2.7
       ionic 4 p auto
  #     hydro 5 g 11.6
       ionic 4 s auto
  #  "Second tier" - improvements: -16.30 meV to -2.03 meV
  #     hydro 3 d 4.4
  #     hydro 6 h 16
  #     hydro 4 f 9.4
  #     hydro 4 p 4.5
  #     hydro 1 s 0.5
  #  "Third tier" - improvements: -6.28 meV to -0.37 meV
  #     hydro 4 d 6.4
  #     hydro 4 f 10
  #     hydro 5 g 12
  #     hydro 2 p 1.7
  #     hydro 6 h 16.4
  #     hydro 4 s 3.8
  #  Further basis functions: -0.45 meV and smaller improvements
  #     hydro 3 d 8.8
  #     hydro 5 p 18
  #     hydro 4 f 22.4
  #     hydro 5 f 7.2  # -0.16 meV
  #     hydro 3 d 2.1  # -0.11 meV
  #     hydro 5 g 7.4  # -0.09 meV
  
  
  ################################################################################
  #
  #  FHI-aims code project
  #  VB, Fritz-Haber Institut, 2009
  #
  #  Suggested "light" defaults for O atom (to be pasted into control.in file)
  #  Be sure to double-check any results obtained with these settings for post-processing,
  #  e.g., with the "tight" defaults and larger basis sets.
  #
  ################################################################################
    species        O
  #     global species definitions
      nucleus             8
      mass                15.9994
  #
      l_hartree           4
  #
      cut_pot             3.5  1.5  1.0
      basis_dep_cutoff    1e-4
  #
      radial_base         36 5.0
      radial_multiplier   1
       angular_grids specified
        division   0.2659   50
        division   0.4451  110
        division   0.6052  194
        division   0.7543  302
  #      division   0.8014  434
  #      division   0.8507  590
  #      division   0.8762  770
  #      division   0.9023  974
  #      division   1.2339 1202
  #      outer_grid 974
        outer_grid 302
  ################################################################################
  #
  #  Definition of "minimal" basis
  #
  ################################################################################
  #     valence basis states
      valence      2  s   2.
      valence      2  p   4.
  #     ion occupancy
      ion_occ      2  s   1.
      ion_occ      2  p   3.
  ################################################################################
  #
  #  Suggested additional basis functions. For production calculations,
  #  uncomment them one after another (the most important basis functions are
  #  listed first).
  #
  #  Constructed for dimers: 1.0 A, 1.208 A, 1.5 A, 2.0 A, 3.0 A
  #
  ################################################################################
  #  "First tier" - improvements: -699.05 meV to -159.38 meV
       hydro 2 p 1.8
       hydro 3 d 7.6
       hydro 3 s 6.4
  #  "Second tier" - improvements: -49.91 meV to -5.39 meV
  #     hydro 4 f 11.6
  #     hydro 3 p 6.2
  #     hydro 3 d 5.6
  #     hydro 5 g 17.6
  #     hydro 1 s 0.75
  #  "Third tier" - improvements: -2.83 meV to -0.50 meV
  #     ionic 2 p auto
  #     hydro 4 f 10.8
  #     hydro 4 d 4.7
  #     hydro 2 s 6.8
  #  "Fourth tier" - improvements: -0.40 meV to -0.12 meV
  #     hydro 3 p 5
  #     hydro 3 s 3.3
  #     hydro 5 g 15.6
  #     hydro 4 f 17.6
  #     hydro 4 d 14
  # Further basis functions - -0.08 meV and below
  #     hydro 3 s 2.1
  #     hydro 4 d 11.6
  #     hydro 3 p 16
  #     hydro 2 s 17.2
  
  -----------------------------------------------------------------------
  Completed first pass over input file control.in .
  -----------------------------------------------------------------------
  
  
  -----------------------------------------------------------------------
  Parsing geometry.in (first pass over file, find array dimensions only).
  The contents of geometry.in will be repeated verbatim below
  unless switched off by setting 'verbatim_writeout .false.' .
  in the first line of geometry.in .
  -----------------------------------------------------------------------
  
  #
  # This is the geometry file that corresponds to the current relaxation step.
  # If you do not want this file to be written, set the "write_restart_geometry" flag to .false.
  #  aims_uuid : 9BA3B050-7FA5-4173-AC7B-B01C22C4F404
  #
  lattice_vector      9.28630678      0.00002283     -0.00000001
  lattice_vector      0.00002292      9.28637558     -0.00000001
  lattice_vector     -0.00000004     -0.00000009      5.94535168
  atom_frac       0.00001042      0.00001109     -0.00006141 Ti
  atom_frac       0.25000609      0.25000588      0.25002440 Ti
  atom_frac       0.15277473      0.15278038     -0.00001470 O
  atom_frac       0.34722235      0.34721380     -0.00001473 O
  atom_frac       0.09722691      0.40278923      0.25002243 O
  atom_frac       0.40278389      0.09721906      0.25002244 O
  atom_frac       0.00001042      0.00001109      0.49993931 Ti
  atom_frac       0.25000663      0.25000510      0.75002440 Ti
  atom_frac       0.15277470      0.15278039      0.49998928 O
  atom_frac       0.34722234      0.34721383      0.49998931 O
  atom_frac       0.09723020      0.40278554      0.75002244 O
  atom_frac       0.40277938      0.09722317      0.75002242 O
  atom_frac       0.00001086      0.50002681      0.00006322 Ti
  atom_frac       0.25001347      0.75001190      0.24997562 Ti
  atom_frac       0.15276750      0.65277937      0.00001467 O
  atom_frac       0.34722125      0.84721002      0.00001464 O
  atom_frac       0.09723729      0.90278836      0.24997758 O
  atom_frac       0.40278339      0.59722962      0.24997758 O
  atom_frac       0.00001087      0.50002681      0.50005885 Ti
  atom_frac       0.25001336      0.75001136      0.74997562 Ti
  atom_frac       0.15276750      0.65277936      0.50001078 O
  atom_frac       0.34722126      0.84721002      0.50001081 O
  atom_frac       0.09723256      0.90279194      0.74997759 O
  atom_frac       0.40278670      0.59722516      0.74997760 O
  atom_frac       0.50002657      0.00001063      0.00007883 Ti
  atom_frac       0.75001320      0.25001151      0.24997563 Ti
  atom_frac       0.65277432      0.15277314      0.00001464 O
  atom_frac       0.84721396      0.34721674      0.00001470 O
  atom_frac       0.59723558      0.40278585      0.24997759 O
  atom_frac       0.90278353      0.09723140      0.24997759 O
  atom_frac       0.50002657      0.00001063      0.50004326 Ti
  atom_frac       0.75001331      0.25001207      0.74997563 Ti
  atom_frac       0.65277431      0.15277314      0.50001083 O
  atom_frac       0.84721396      0.34721675      0.50001078 O
  atom_frac       0.59723228      0.40279032      0.74997761 O
  atom_frac       0.90278828      0.09722783      0.74997761 O
  atom_frac       0.50001506      0.50000689     -0.00005619 Ti
  atom_frac       0.75000672      0.75000519      0.25002435 Ti
  atom_frac       0.65277571      0.65277678     -0.00001476 O
  atom_frac       0.84722148      0.84721763     -0.00001475 O
  atom_frac       0.59722846      0.90278389      0.25002240 O
  atom_frac       0.90278138      0.59722504      0.25002238 O
  atom_frac       0.50001506      0.50000689      0.49993407 Ti
  atom_frac       0.75000616      0.75000596      0.75002435 Ti
  atom_frac       0.65277572      0.65277676      0.49998926 O
  atom_frac       0.84722151      0.84721763      0.49998925 O
  atom_frac       0.59723295      0.90277978      0.75002238 O
  atom_frac       0.90277807      0.59722873      0.75002239 O
  #
  # What follows is the current estimated Hessian matrix constructed by the BFGS algorithm.
  # This is NOT the true Hessian matrix of the system.
  # If you do not want this information here, switch it off using the "hessian_to_restart_geometry" keyword.
  #
  trust_radius             0.0015435619
  hessian_file
  
  -----------------------------------------------------------------------
  Completed first pass over input file geometry.in .
  -----------------------------------------------------------------------
  

  Basic array size parameters:
  | Number of species                 :        2
  | Number of atoms                   :       48
  | Number of lattice vectors         :        3
  | Max. basis fn. angular momentum   :        3
  | Max. atomic/ionic basis occupied n:        4
  | Max. number of basis fn. types    :        3
  | Max. radial fns per species/type  :        7
  | Max. logarithmic grid size        :     1383
  | Max. radial integration grid size :       48
  | Max. angular integration grid size:      302
  | Max. angular grid division number :        8
  | Radial grid for Hartree potential :     1383
  | Number of spin channels           :        1

------------------------------------------------------------
          Reading file control.in.
------------------------------------------------------------
  XC: Using PBE gradient-corrected functionals.
  Scalar relativistic treatment of kinetic energy: ZORA.
  Threshold value for ZORA:   0.100000E-11
  Found k-point grid:         4         4         6
  Mulliken charge analysis will be performed and summarised to the main output.
  Full Mulliken charge analysis will be written to file 'Mulliken.out'.
 
  Reading configuration options for species Ti                  .
  | Found nuclear charge :  22.0000
  | Found atomic mass :    47.8670000000000      amu
  | Found l_max for Hartree potential  :   4
  | Found cutoff potl. onset [A], width [A], scale factor :    3.50000    1.50000    1.00000
  | Threshold for basis-dependent cutoff potential is   0.100000E-03
  | Found data for basic radial integration grid :    48 points, outermost radius =    5.000 A
  | Found multiplier for basic radial grid :   1
  | Found angular grid specification: user-specified.
  | Specified grid contains     5 separate shells.
  | Check grid settings after all constraints further below.
  | Found free-atom valence shell :  4 s   2.000
  | Found free-atom valence shell :  3 p   6.000
  | Found free-atom valence shell :  3 d   2.000
  | Found free-ion valence shell :  4 s   1.000
  | Found free-ion valence shell :  3 p   6.000
  | Found free-ion valence shell :  3 d   1.000
  | Found hydrogenic basis function :  4 f   8.000
  | Found hydrogenic basis function :  3 d   2.700
  | Found ionic basis function :  4 p , default cutoff radius.
  | Found ionic basis function :  4 s , default cutoff radius.
 | Encountered keyword species, ending the description of species Ti                  .
  Species Ti                  : Missing cutoff potential type.
  Defaulting to exp(1/x)/(1-x)^2 type cutoff potential.
  Species Ti: No 'logarithmic' tag. Using default grid for free atom:
  | Default logarithmic grid data [bohr] : 0.1000E-03 0.1000E+03 0.1012E+01
  | Will include ionic basis functions of  2.0-fold positive Ti                   ion.
  Species Ti: On-site basis accuracy parameter (for Gram-Schmidt orthonormalisation) not specified.
  Using default value basis_acc =  0.1000000E-03.
  Species Ti                  : Using default innermost maximum threshold i_radial=  2 for radial functions.
  Species Ti                  : Default cutoff onset for free atom density etc. : 0.35000000E+01 AA.
  Species Ti                  : Basic radial grid will be enhanced according to radial_multiplier =   1, to contain    48 grid points.
 
  Reading configuration options for species O                   .
  | Found nuclear charge :   8.0000
  | Found atomic mass :    15.9994000000000      amu
  | Found l_max for Hartree potential  :   4
  | Found cutoff potl. onset [A], width [A], scale factor :    3.50000    1.50000    1.00000
  | Threshold for basis-dependent cutoff potential is   0.100000E-03
  | Found data for basic radial integration grid :    36 points, outermost radius =    5.000 A
  | Found multiplier for basic radial grid :   1
  | Found angular grid specification: user-specified.
  | Specified grid contains     5 separate shells.
  | Check grid settings after all constraints further below.
  | Found free-atom valence shell :  2 s   2.000
  | Found free-atom valence shell :  2 p   4.000
  | Found free-ion valence shell :  2 s   1.000
  | Found free-ion valence shell :  2 p   3.000
  | Found hydrogenic basis function :  2 p   1.800
  | Found hydrogenic basis function :  3 d   7.600
  | Found hydrogenic basis function :  3 s   6.400
  Species O                   : Missing cutoff potential type.
  Defaulting to exp(1/x)/(1-x)^2 type cutoff potential.
  Species O : No 'logarithmic' tag. Using default grid for free atom:
  | Default logarithmic grid data [bohr] : 0.1000E-03 0.1000E+03 0.1012E+01
  Species O : On-site basis accuracy parameter (for Gram-Schmidt orthonormalisation) not specified.
  Using default value basis_acc =  0.1000000E-03.
  Species O                   : Using default innermost maximum threshold i_radial=  2 for radial functions.
  Species O                   : Default cutoff onset for free atom density etc. : 0.35000000E+01 AA.
  Species O                   : Basic radial grid will be enhanced according to radial_multiplier =   1, to contain    36 grid points.
 
  Finished reading input file 'control.in'.
 
------------------------------------------------------------


------------------------------------------------------------
          Reading geometry description geometry.in.
------------------------------------------------------------
  Found keyword 'hessian_file', indicating that this is the continuation of a structure optimization.
  However, the control.in file does not request the geometry to be optimized.
  Ignoring the request for a file 'hessian.aims' to be present.
  | The smallest distance between any two atoms is         1.95910904 AA.
  | The first atom of this pair is atom number                     14 .
  | The second atom of this pair is atom number                    16 .
  | Wigner-Seitz cell of the first atom image           0     0     0 .
  | (The Wigner-Seitz cell of the second atom is 0 0 0  by definition.)

  Symmetry information by spglib:
  | Precision set to  0.1E-04
  | Number of Operations  : 1
  | Space group           : 1
  | International         : P1
  | Schoenflies           : C1^1
  Input structure read successfully.
  The structure contains       48 atoms,  and a total of        608.000 electrons.

  Input geometry:
  | Unit cell:
  |        9.28630678        0.00002283       -0.00000001
  |        0.00002292        9.28637558       -0.00000001
  |       -0.00000004       -0.00000009        5.94535168
  | Atomic structure:
  |       Atom                x [A]            y [A]            z [A]
  |    1: Species Ti            0.00009676        0.00010299       -0.00036510
  |    2: Species Ti            2.32163897        2.32165418        1.48648298
  |    3: Species O             1.41871651        1.41877948       -0.00008740
  |    4: Species O             3.22442122        3.22436568       -0.00008758
  |    5: Species O             0.90288814        3.74045427        1.48647127
  |    6: Species O             3.74037699        0.90282188        1.48647133
  |    7: Species Ti            0.00009674        0.00010294        2.97231502
  |    8: Species Ti            2.32164396        2.32164690        4.45915882
  |    9: Species O             1.41871621        1.41877953        2.97261210
  |   10: Species O             3.22442111        3.22436591        2.97261228
  |   11: Species O             0.90291867        3.74041995        4.45914717
  |   12: Species O             3.74033509        0.90286000        4.45914705
  |   13: Species Ti            0.00011231        4.64343676        0.00037586
  |   14: Species Ti            2.32171896        6.96489788        1.48619296
  |   15: Species O             1.41866083        6.06195789        0.00008721
  |   16: Species O             3.22442247        7.86751837        0.00008703
  |   17: Species O             0.90299599        8.38363398        1.48620462
  |   18: Species O             3.74038380        5.54610773        1.48620462
  |   19: Species Ti            0.00011238        4.64343671        2.97302572
  |   20: Species Ti            2.32171792        6.96489282        4.45886880
  |   21: Species O             1.41866081        6.06195775        2.97273992
  |   22: Species O             3.22442254        7.86751832        2.97274010
  |   23: Species O             0.90295204        8.38366718        4.45888051
  |   24: Species O             3.74041452        5.54606627        4.45888057
  |   25: Species Ti            4.64340013        0.00011013        0.00046867
  |   26: Species Ti            6.96485838        2.32171788        1.48619302
  |   27: Species O             6.06186610        1.41872366        0.00008703
  |   28: Species O             7.86749670        3.22440440        0.00008738
  |   29: Species O             5.54612204        3.74043429        1.48620467
  |   30: Species O             8.38352703        0.90294789        1.48620467
  |   31: Species Ti            4.64340011        0.00011008        2.97293303
  |   32: Species Ti            6.96485939        2.32172304        4.45886886
  |   33: Species O             6.06186598        1.41872361        2.97274022
  |   34: Species O             7.86749668        3.22440445        2.97273992
  |   35: Species O             5.54609137        3.74047576        4.45888063
  |   36: Species O             8.38357112        0.90291469        4.45888063
  |   37: Species Ti            4.64330470        4.64326319       -0.00033408
  |   38: Species Ti            6.96480967        6.96484698        1.48648267
  |   39: Species O             6.06189046        6.06194525       -0.00008777
  |   40: Species O             7.86757799        7.86760045       -0.00008771
  |   41: Species O             5.54606738        8.38360388        1.48647108
  |   42: Species O             8.38351853        5.54607662        1.48647096
  |   43: Species Ti            4.64330468        4.64326314        2.97228385
  |   44: Species Ti            6.96480445        6.96485409        4.45915851
  |   45: Species O             6.06189054        6.06194502        2.97261197
  |   46: Species O             7.86757825        7.86760041        2.97261191
  |   47: Species O             5.54610905        8.38356567        4.45914680
  |   48: Species O             8.38348777        5.54611084        4.45914686

  Lattice parameters for 3D lattice (in Angstroms) :     9.286307    9.286376    5.945352
  Angle(s) between unit vectors (in degrees)       :    90.000001   90.000000   89.999718


  Quantities derived from the lattice vectors (in Angstrom^-1):
  | Reciprocal lattice vector 1:  0.676608 -0.000002  0.000000
  | Reciprocal lattice vector 2: -0.000002  0.676603  0.000000
  | Reciprocal lattice vector 3:  0.000000  0.000000  1.056823
  | Unit cell volume                               :   0.512704E+03  Angstrom^3

  Fractional coordinates:
                         L1                L2                L3
       atom_frac         0.00001042        0.00001109       -0.00006141  Ti
       atom_frac         0.25000609        0.25000588        0.25002440  Ti
       atom_frac         0.15277473        0.15278038       -0.00001470  O
       atom_frac         0.34722235        0.34721380       -0.00001473  O
       atom_frac         0.09722691        0.40278923        0.25002243  O
       atom_frac         0.40278389        0.09721906        0.25002244  O
       atom_frac         0.00001042        0.00001109        0.49993931  Ti
       atom_frac         0.25000663        0.25000510        0.75002440  Ti
       atom_frac         0.15277470        0.15278039        0.49998928  O
       atom_frac         0.34722234        0.34721383        0.49998931  O
       atom_frac         0.09723020        0.40278554        0.75002244  O
       atom_frac         0.40277938        0.09722317        0.75002242  O
       atom_frac         0.00001086        0.50002681        0.00006322  Ti
       atom_frac         0.25001347        0.75001190        0.24997562  Ti
       atom_frac         0.15276750        0.65277937        0.00001467  O
       atom_frac         0.34722125        0.84721002        0.00001464  O
       atom_frac         0.09723729        0.90278836        0.24997758  O
       atom_frac         0.40278339        0.59722962        0.24997758  O
       atom_frac         0.00001087        0.50002681        0.50005885  Ti
       atom_frac         0.25001336        0.75001136        0.74997562  Ti
       atom_frac         0.15276750        0.65277936        0.50001078  O
       atom_frac         0.34722126        0.84721002        0.50001081  O
       atom_frac         0.09723256        0.90279194        0.74997759  O
       atom_frac         0.40278670        0.59722516        0.74997760  O
       atom_frac         0.50002657        0.00001063        0.00007883  Ti
       atom_frac         0.75001320        0.25001151        0.24997563  Ti
       atom_frac         0.65277432        0.15277314        0.00001464  O
       atom_frac         0.84721396        0.34721674        0.00001470  O
       atom_frac         0.59723558        0.40278585        0.24997759  O
       atom_frac         0.90278353        0.09723140        0.24997759  O
       atom_frac         0.50002657        0.00001063        0.50004326  Ti
       atom_frac         0.75001331        0.25001207        0.74997563  Ti
       atom_frac         0.65277431        0.15277314        0.50001083  O
       atom_frac         0.84721396        0.34721675        0.50001078  O
       atom_frac         0.59723228        0.40279032        0.74997761  O
       atom_frac         0.90278828        0.09722783        0.74997761  O
       atom_frac         0.50001506        0.50000689       -0.00005619  Ti
       atom_frac         0.75000672        0.75000519        0.25002435  Ti
       atom_frac         0.65277571        0.65277678       -0.00001476  O
       atom_frac         0.84722148        0.84721763       -0.00001475  O
       atom_frac         0.59722846        0.90278389        0.25002240  O
       atom_frac         0.90278138        0.59722504        0.25002238  O
       atom_frac         0.50001506        0.50000689        0.49993407  Ti
       atom_frac         0.75000616        0.75000596        0.75002435  Ti
       atom_frac         0.65277572        0.65277676        0.49998926  O
       atom_frac         0.84722151        0.84721763        0.49998925  O
       atom_frac         0.59723295        0.90277978        0.75002238  O
       atom_frac         0.90277807        0.59722873        0.75002239  O

  Slab Identifier: This seems to be a bulk system.
 
  Finished reading input file 'geometry.in'.
 

 
  Consistency checks for stacksize environment parameter are next.
 
  | Maximum stacksize for task 0: unlimited
  | Maximum stacksize for task 1: unlimited
  | Maximum stacksize for task 2: unlimited
  | Maximum stacksize for task 3: unlimited
  | Maximum stacksize for task 4: unlimited
  | Maximum stacksize for task 5: unlimited
  | Maximum stacksize for task 6: unlimited
  | Maximum stacksize for task 7: unlimited
  | Maximum stacksize for task 8: unlimited
  | Maximum stacksize for task 9: unlimited
  | Maximum stacksize for task 10: unlimited
  | Maximum stacksize for task 11: unlimited
  | Maximum stacksize for task 12: unlimited
  | Maximum stacksize for task 13: unlimited
  | Maximum stacksize for task 14: unlimited
  | Maximum stacksize for task 15: unlimited
  | Maximum stacksize for task 16: unlimited
  | Maximum stacksize for task 17: unlimited
  | Maximum stacksize for task 18: unlimited
  | Maximum stacksize for task 19: unlimited
  | Maximum stacksize for task 20: unlimited
  | Maximum stacksize for task 21: unlimited
  | Maximum stacksize for task 22: unlimited
  | Maximum stacksize for task 23: unlimited
  | Maximum stacksize for task 24: unlimited
  | Maximum stacksize for task 25: unlimited
  | Maximum stacksize for task 26: unlimited
  | Maximum stacksize for task 27: unlimited
  | Maximum stacksize for task 28: unlimited
  | Maximum stacksize for task 29: unlimited
  | Maximum stacksize for task 30: unlimited
  | Maximum stacksize for task 31: unlimited
  | Current stacksize for task 0: unlimited
  | Current stacksize for task 1: unlimited
  | Current stacksize for task 2: unlimited
  | Current stacksize for task 3: unlimited
  | Current stacksize for task 4: unlimited
  | Current stacksize for task 5: unlimited
  | Current stacksize for task 6: unlimited
  | Current stacksize for task 7: unlimited
  | Current stacksize for task 8: unlimited
  | Current stacksize for task 9: unlimited
  | Current stacksize for task 10: unlimited
  | Current stacksize for task 11: unlimited
  | Current stacksize for task 12: unlimited
  | Current stacksize for task 13: unlimited
  | Current stacksize for task 14: unlimited
  | Current stacksize for task 15: unlimited
  | Current stacksize for task 16: unlimited
  | Current stacksize for task 17: unlimited
  | Current stacksize for task 18: unlimited
  | Current stacksize for task 19: unlimited
  | Current stacksize for task 20: unlimited
  | Current stacksize for task 21: unlimited
  | Current stacksize for task 22: unlimited
  | Current stacksize for task 23: unlimited
  | Current stacksize for task 24: unlimited
  | Current stacksize for task 25: unlimited
  | Current stacksize for task 26: unlimited
  | Current stacksize for task 27: unlimited
  | Current stacksize for task 28: unlimited
  | Current stacksize for task 29: unlimited
  | Current stacksize for task 30: unlimited
  | Current stacksize for task 31: unlimited
 
  Consistency checks for the contents of control.in are next.
 
  MPI_IN_PLACE appears to work with this MPI implementation.
  | Keeping use_mpi_in_place .true. (see manual).
  Target number of points in a grid batch is not set. Defaulting to  100
  Method for grid partitioning is not set. Defaulting to parallel hash+maxmin partitioning.
  Batch size limit is not set. Defaulting to    200
  By default, will store active basis functions for each batch.
  If in need of memory, prune_basis_once .false. can be used to disable this option.
  communication_type for Hartree potential was not specified.
  Defaulting to calc_hartree .
  Defaulting to Pulay charge density mixer.
  Pulay mixer: Number of relevant iterations not set.
  Defaulting to    8 iterations.
  Pulay mixer: Number of initial linear mixing iterations not set.
  Defaulting to    0 iterations.
  Work space size for distributed Hartree potential not set.
  Defaulting to   0.200000E+03 MB.
  Mixing parameter for charge density mixing has not been set.
  Using default: charge_mix_param =     0.0500.
  The mixing parameter will be adjusted in iteration number     2 of each s.c.f. cycle (i.e., each geometry step).
  Algorithm-dependent basis array size parameters:
  | n_max_pulay                         :        8
  Maximum number of self-consistency iterations not provided.
  Presetting  1000 iterations.
  Presetting      1001 iterations before the initial mixing cycle
  is restarted anyway using the sc_init_iter criterion / keyword.
  Presetting a factor      1.000 between actual scf density residual
  and density convergence criterion sc_accuracy_rho below which sc_init_iter
  takes no effect.
 * No s.c.f. convergence criteria (sc_accuracy_*) were provided in control.in.
 * The run will proceed with a reasonable default guess, but please check whether.
 * the s.c.f. cycles seem to take too much or too little time.
  Calculation of forces was not defined in control.in. No forces will be calculated.
  Geometry relaxation not requested: no relaxation will be performed.
 * Notice: The s.c.f. convergence criterion sc_accuracy_rho was not provided.
 * We used to stop in this case, and ask the user to provide reasonable
 * scf convergence criteria. However, this led some users to employ criteria
 * that led to extremely long run times, e.g., for simple relaxation.
 * We now preset a default value for sc_accuracy_rho if it is not set.
 * You may still wish to check if this setting is too tight or too loose for your needs.
 * Based on n_atoms and forces and force-correction status, FHI-aims chose sc_accuracy_rho =  0.282843E-05 .
  No accuracy limit for integral partition fn. given. Defaulting to  0.1000E-14.
  No threshold value for u(r) in integrations given. Defaulting to  0.1000E-05.
  No occupation type (smearing scheme) given. Defaulting to Gaussian broadening, width =  0.1000E-01 eV.
  The width will be adjusted in iteration number     2 of each s.c.f. cycle (i.e., each geometry step).
  No accuracy for occupation numbers given. Defaulting to  0.1000E-12.
  No threshold value for occupation numbers given. Defaulting to  0.0000E+00.
  No accuracy for fermi level given. Defaulting to  0.1000E-19.
  Maximum # of iterations to find E_F not set. Defaulting to  200.
  Preferred method for the eigenvalue solver ('KS_method') not specified in 'control.in'.
  Defaulting to serial version, LAPACK (via ELSI), since more k-points than CPUs available.
  Will not use alltoall communication since running on < 1024 CPUs.
  Threshold for basis singularities not set.
  Default threshold for basis singularities:  0.1000E-04
  partition_type (choice of integration weights) for integrals was not specified.
  | Using a version of the partition function of Stratmann and coworkers ('stratmann_sparse').
  | At each grid point, the set of atoms used to build the partition table is smoothly restricted to
  | only those atoms whose free-atom density would be non-zero at that grid point.
  Partitioning for Hartree potential was not defined. Using partition_type for integrals.
  | Adjusted default value of keyword multip_moments_threshold to:       0.10000000E-11
  | This value may affect high angular momentum components of the Hartree potential in periodic systems.
  Spin handling was not defined in control.in. Defaulting to unpolarized case.
  No q(lm)/r^(l+1) cutoff set for long-range Hartree potential.
  | Using default value of  0.100000E-09 .
  | Verify using the multipole_threshold keyword.
  Defaulting to new monopole extrapolation.
  Density update method: automatic selection selected.
  Using density matrix based charge density update.
  Using density matrix based charge density update.
  Using packed matrix style: index .
  Defaulting to use time-reversal symmetry for k-point grid.
  Charge integration errors on the 3D integration grid will be compensated
  by explicit normalization and distribution of residual charges.
  Use the "compensate_multipole_errors" flag to change this behaviour.
  Set 'collect_eigenvectors' to be '.true.' for all serial calculations. This is mandatory.
  Set 'collect_eigenvectors' to be '.true.' for KS_method lapack_fast and serial.
  Found potential conflicts with setting 'use_local_index' for this calculation. Will not set it.
 
  Consistency checks for the contents of geometry.in are next.
 

  Range separation radius for Ewald summation (hartree_convergence_parameter):      3.05694433 bohr.
  Number of empty states per atom not set in control.in - providing a guess from actual geometry.
  | Total number of empty states used during s.c.f. cycle:      184
  If you use a very high smearing, use empty_states (per atom!) in control.in to increase this value.

  Structure-dependent array size parameters: 
  | Maximum number of distinct radial functions  :       17
  | Maximum number of basis functions            :      944
  | Number of Kohn-Sham states (occupied + empty):      488
------------------------------------------------------------
  After read_input_data [GB]:    773.66

  Performing system and environment tests:
  *** Environment variable OMP_NUM_THREADS is not set
  *** For performance reasons you might want to set it to 1
  | Checking for ScaLAPACK...
  | Testing pdtran()...
  | All pdtran() tests passed.
  After prepare_system [GB]:    773.63

------------------------------------------------------------
          Preparing all fixed parts of the calculation.
------------------------------------------------------------
  Determining machine precision:
    2.225073858507201E-308
  Setting up grids for atomic and cluster calculations.

  Creating wave function, potential, and density for free atoms.
  Runtime choices for atomic solver:
  | atomic solver xc        : PBE
  | compute density gradient: 1
  | compute kinetic density : F

  Species: Ti

  List of occupied orbitals and eigenvalues:
    n    l              occ      energy [Ha]    energy [eV]
    1    0           2.0000      -179.959082     -4896.9358
    2    0           2.0000       -19.727662      -536.8170
    3    0           2.0000        -2.283029       -62.1244
    4    0           2.0000        -0.148384        -4.0377
    2    1           6.0000       -16.317278      -444.0157
    3    1           6.0000        -1.409348       -38.3503
    3    2           2.0000        -0.139340        -3.7916


  Species: O

  List of occupied orbitals and eigenvalues:
    n    l              occ      energy [Ha]    energy [eV]
    1    0           2.0000       -18.926989      -515.0296
    2    0           2.0000        -0.880247       -23.9527
    2    1           4.0000        -0.331514        -9.0210


  Adding cutoff potential to free-atom effective potential.
  Creating fixed part of basis set: Ionic, confined, hydrogenic.
 
  Ti                   ion:

  List of free ionic orbitals and eigenvalues:
    n    l      energy [Ha]    energy [eV]
    1    0      -180.819616     -4920.3521
    2    0       -20.608761      -560.7929
    3    0        -3.115729       -84.7833
    4    0        -0.697188       -18.9715
    2    1       -17.196209      -467.9327
    3    1        -2.231296       -60.7167
    3    2        -0.911363       -24.7995


  List of ionic basis orbitals and eigenvalues:
    n    l      energy [Ha]    energy [eV]    outer radius [A]
    4    1        -0.517739       -14.0884       4.592117
    4    0        -0.696824       -18.9615       4.536321

 
  Ti                   hydrogenic:
 
  List of hydrogenic basis orbitals: 
    n    l      effective z      eigenvalue [eV]  inner max. [A]     outer max. [A]     outer radius [A]   
    4    3         8.000000       -54.4222           1.059019           1.059019           4.267343
    3    2         2.700000       -10.7798           1.726925           1.726925           4.592117
 
 
  O                    hydrogenic:
 
  List of hydrogenic basis orbitals: 
    n    l      effective z      eigenvalue [eV]  inner max. [A]     outer max. [A]     outer radius [A]   
    2    1         1.800000       -10.9749           1.164242           1.164242           4.578029
    3    2         7.600000       -87.3180           0.624125           0.624125           3.251020
    3    0         6.400000       -61.9207           0.061167           1.081902           4.001998
 
  Creating atomic-like basis functions for current effective potential.

  Species Ti                  :

  List of atomic basis orbitals and eigenvalues:
    n    l      energy [Ha]    energy [eV]    outer radius [A]
    1    0      -179.959082     -4896.9358       0.490254
    2    0       -19.727662      -536.8170       1.491292
    3    0        -2.283029       -62.1244       4.014314
    4    0        -0.148384        -4.0377       4.592117
    2    1       -16.317278      -444.0157       1.585290
    3    1        -1.409348       -38.3503       4.267343
    3    2        -0.139340        -3.7916       4.536321


  Species O                   :

  List of atomic basis orbitals and eigenvalues:
    n    l      energy [Ha]    energy [eV]    outer radius [A]
    1    0       -18.926989      -515.0296       1.415765
    2    0        -0.880247       -23.9527       4.413171
    2    1        -0.331514        -9.0210       4.522403

  Assembling full basis from fixed parts.
  | Species Ti :   atomic orbital   1 s accepted.
  | Species Ti :   atomic orbital   2 s accepted.
  | Species Ti :   atomic orbital   3 s accepted.
  | Species Ti :    ionic orbital   4 s accepted.
  | Species Ti :   atomic orbital   4 s accepted.
  | Species Ti :   atomic orbital   2 p accepted.
  | Species Ti :   atomic orbital   3 p accepted.
  | Species Ti :    ionic orbital   4 p accepted.
  | Species Ti :   atomic orbital   3 d accepted.
  | Species Ti :    hydro orbital   3 d accepted.
  | Species Ti :    hydro orbital   4 f accepted.
  | Species O :   atomic orbital   1 s accepted.
  | Species O :    hydro orbital   3 s accepted.
  | Species O :   atomic orbital   2 s accepted.
  | Species O :   atomic orbital   2 p accepted.
  | Species O :    hydro orbital   2 p accepted.
  | Species O :    hydro orbital   3 d accepted.
 
  Basis size parameters after reduction:
  | Total number of radial functions:       17
  | Total number of basis functions :      944
 
  Per-task memory consumption for arrays in subroutine allocate_ext:
  |           4.537736MB.
  Testing on-site integration grid accuracy.
  |  Species  Function  <phi|h_atom|phi> (log., in eV)  <phi|h_atom|phi> (rad., in eV)
           1        1              -4896.9357674450              -4896.9322838106
           1        2               -536.8170048508               -536.8169722776
           1        3                -62.1243896260                -62.1243889401
           1        4                 -3.2653235630                 -3.2692838824
           1        5                  6.7987747276                  6.5460721871 ***
           1        6               -444.0157161949               -444.0157165643
           1        7                -38.3503235548                -38.3503234985
           1        8                  0.2923930877                  0.2745948114
           1        9                 -3.7933400649                 -3.7959244171
           1       10                  6.3288803616                  6.2510614935 ***
           1       11                 27.8451455747                 27.8452636415
           2       12               -515.0295626295               -515.0294562869
           2       13                 15.1698434419                 15.1699322205
           2       14                -21.6038822678                -21.6039118108
           2       15                 -9.0211123393                 -9.0212703513
           2       16                  8.3047696391                  8.2854840999
           2       17                 45.8428042125                 45.8427461223
 * Note: Onsite integrals marked "***" above are less accurate than
 * onsite_accuracy_threshold =    0.03000 eV. Usually, this is harmless.
 * When in doubt, tighten the "radial" and/or "radial_multiplier" flags to check.

  Preparing densities etc. for the partition functions (integrals / Hartree potential).

  Preparations completed.
  max(cpu_time)          :      0.329 s.
  Wall clock time (cpu1) :      0.326 s.
------------------------------------------------------------
  After prepare_scf [GB]:    772.38

  Initializing index lists of integration centers etc. from given atomic structure:
  Mapping all atomic coordinates to central unit cell.

  Initializing the k-points
  Using symmetry for reducing the k-points
  | k-points reduced from:       96 to       52
  | Number of k-points                             :        52
  The eigenvectors in the calculations are COMPLEX.
  | K-points in task   0:         1
  | K-points in task   1:         2
  | K-points in task   2:         2
  | K-points in task   3:         2
  | K-points in task   4:         2
  | K-points in task   5:         2
  | K-points in task   6:         2
  | K-points in task   7:         2
  | K-points in task   8:         2
  | K-points in task   9:         2
  | K-points in task  10:         2
  | K-points in task  11:         2
  | K-points in task  12:         2
  | K-points in task  13:         2
  | K-points in task  14:         2
  | K-points in task  15:         2
  | K-points in task  16:         2
  | K-points in task  17:         2
  | K-points in task  18:         2
  | K-points in task  19:         2
  | K-points in task  20:         2
  | K-points in task  21:         1
  | K-points in task  22:         1
  | K-points in task  23:         1
  | K-points in task  24:         1
  | K-points in task  25:         1
  | K-points in task  26:         1
  | K-points in task  27:         1
  | K-points in task  28:         1
  | K-points in task  29:         1
  | K-points in task  30:         1
  | K-points in task  31:         1
  | Number of basis functions in the Hamiltonian integrals :      7297
  | Number of basis functions in a single unit cell        :       944
  | Number of centers in hartree potential         :      2123
  | Number of centers in hartree multipole         :      1437
  | Number of centers in electron density summation:      1109
  | Number of centers in basis integrals           :      1188
  | Number of centers in integrals                 :       481
  | Number of centers in hamiltonian               :      1109
  | Consuming         37 KiB for k_phase.
  | Number of super-cells (origin) [n_cells]                     :         175
  | Number of super-cells (after PM_index) [n_cells]             :          46
  | Number of super-cells in hamiltonian [n_cells_in_hamiltonian]:          46
  | Size of matrix packed + index [n_hamiltonian_matrix_size] :     2120993
  After initialize_bc_dependent_lists [GB]:    772.39

------------------------------------------------------------
          Begin self-consistency loop: Initialization.

          Date     :  20241019, Time     :  150524.765
------------------------------------------------------------
  Available memory per node after initialize_hartree_non_periodic_ewald [GB]:    772.39
  | Estimated reciprocal-space cutoff momentum G_max:         3.08892848 bohr^-1 .
  | Reciprocal lattice points for long-range Hartree potential:    1722
  Available memory per node after initialize_recip_hartree_potential [GB]:    772.39
  Available memory per node after initialize_scalapack [GB]:    772.39
  Available memory per node after aims_elsi_init_scf [GB]:    772.40
  Available memory per node after initialize_fixed_grids [GB]:    772.40
  Partitioning the integration grid into batches with parallel hashing+maxmin method.
  | Number of batches:     4096
  | Maximal batch size:      78
  | Minimal batch size:      72
  | Average batch size:      74.859
  | Standard deviation of batch sizes:       1.534

  Integration load balanced across    32 MPI tasks.
  Work distribution over tasks is as follows:
  Task     0 has       9542 integration points.
  Task     1 has       9599 integration points.
  Task     2 has       9602 integration points.
  Task     3 has       9567 integration points.
  Task     4 has       9565 integration points.
  Task     5 has       9606 integration points.
  Task     6 has       9564 integration points.
  Task     7 has       9579 integration points.
  Task     8 has       9618 integration points.
  Task     9 has       9579 integration points.
  Task    10 has       9615 integration points.
  Task    11 has       9582 integration points.
  Task    12 has       9580 integration points.
  Task    13 has       9614 integration points.
  Task    14 has       9579 integration points.
  Task    15 has       9541 integration points.
  Task    16 has       9602 integration points.
  Task    17 has       9562 integration points.
  Task    18 has       9595 integration points.
  Task    19 has       9577 integration points.
  Task    20 has       9597 integration points.
  Task    21 has       9597 integration points.
  Task    22 has       9582 integration points.
  Task    23 has       9564 integration points.
  Task    24 has       9568 integration points.
  Task    25 has       9607 integration points.
  Task    26 has       9567 integration points.
  Task    27 has       9579 integration points.
  Task    28 has       9596 integration points.
  Task    29 has       9596 integration points.
  Task    30 has       9561 integration points.
  Task    31 has       9542 integration points.
  Available memory per node after partition_grid [GB]:    772.32
  Initializing partition tables, free-atom densities, potentials, etc. across the integration grid (initialize_grid_storage).
  | initialize_grid_storage: Actual outermost partition radius vs. multipole_radius_free
  | (-- VB: in principle, multipole_radius_free should be larger, hence this output)
  | Species        1: Confinement radius =              4.999999999999999 AA, multipole_radius_free =              5.002391649902235 AA.
  | Species        1: outer_partition_radius set to              5.002391649902235 AA .
  | Species        2: Confinement radius =              4.999999999999999 AA, multipole_radius_free =              5.048384829883283 AA.
  | Species        2: outer_partition_radius set to              5.048384829883283 AA .
  | The sparse table of interatomic distances needs       3496.88 kbyte instead of     11290.75 kbyte of memory.
  | Net number of integration points:   306624
  | of which are non-zero points    :   252128
  | Numerical average free-atom electrostatic potential    :    -17.70584580 eV
  Available memory per node after initialize_grid_storage_p1 [GB]:    772.02
  Renormalizing the initial density to the exact electron count on the 3D integration grid.
  | Initial density: Formal number of electrons (from input files) :     608.0000000000
  | Integrated number of electrons on 3D grid     :     608.0048962447
  | Charge integration error                      :       0.0048962447
  | Normalization factor for density and gradient :       0.9999919470
  Renormalizing the free-atom superposition density to the exact electron count on the 3D integration grid.
  | Formal number of electrons (from input files) :     608.0000000000
  | Integrated number of electrons on 3D grid     :     608.0048962447
  | Charge integration error                      :       0.0048962447
  | Normalization factor for density and gradient :       0.9999919470
  Obtaining max. number of non-zero basis functions in each batch (get_n_compute_maxes).
  | Maximal number of non-zero basis functions:      816 in task     0
  | Maximal number of non-zero basis functions:      837 in task     1
  | Maximal number of non-zero basis functions:      825 in task     2
  | Maximal number of non-zero basis functions:      857 in task     3
  | Maximal number of non-zero basis functions:      857 in task     4
  | Maximal number of non-zero basis functions:      824 in task     5
  | Maximal number of non-zero basis functions:      827 in task     6
  | Maximal number of non-zero basis functions:      857 in task     7
  | Maximal number of non-zero basis functions:      814 in task     8
  | Maximal number of non-zero basis functions:      857 in task     9
  | Maximal number of non-zero basis functions:      816 in task    10
  | Maximal number of non-zero basis functions:      857 in task    11
  | Maximal number of non-zero basis functions:      857 in task    12
  | Maximal number of non-zero basis functions:      821 in task    13
  | Maximal number of non-zero basis functions:      857 in task    14
  | Maximal number of non-zero basis functions:      822 in task    15
  | Maximal number of non-zero basis functions:      857 in task    16
  | Maximal number of non-zero basis functions:      827 in task    17
  | Maximal number of non-zero basis functions:      834 in task    18
  | Maximal number of non-zero basis functions:      857 in task    19
  | Maximal number of non-zero basis functions:      825 in task    20
  | Maximal number of non-zero basis functions:      832 in task    21
  | Maximal number of non-zero basis functions:      857 in task    22
  | Maximal number of non-zero basis functions:      831 in task    23
  | Maximal number of non-zero basis functions:      829 in task    24
  | Maximal number of non-zero basis functions:      832 in task    25
  | Maximal number of non-zero basis functions:      824 in task    26
  | Maximal number of non-zero basis functions:      857 in task    27
  | Maximal number of non-zero basis functions:      840 in task    28
  | Maximal number of non-zero basis functions:      832 in task    29
  | Maximal number of non-zero basis functions:      824 in task    30
  | Maximal number of non-zero basis functions:      810 in task    31
  Available memory per node after get_n_compute_maxes_p1 [GB]:    772.26
  Allocating        7.029 MB for KS_eigenvector_complex
  Available memory per node after allocate_matrices [GB]:    772.26
  Available memory per node after init_comm_sparse_local_matrix_scalapack [GB]:    772.30
  Integrating Hamiltonian matrix: batch-based integration.
  Time summed over all CPUs for integration: real work       86.178 s, elapsed      184.006 s => Consider using load balancing!
  Available memory per node after integrate hamiltonian matrix [GB]:    771.30
  Integrating overlap matrix.
  Time summed over all CPUs for integration: real work       30.285 s, elapsed       66.479 s
  Available memory per node after integrate ovlp matrix [GB]:    770.60
  Available memory per node after ASI_callbacks invoke [GB]:    770.60
  Available memory per node after save_overlap_scalapack [GB]:    770.60

  Updating Kohn-Sham eigenvalues and eigenvectors using ELSI and the (modified) LAPACK eigensolver.
  Singularity check in k-point 32, task 0 (analysis for other k-points/tasks may follow below):
  Overlap matrix is not singular
  | Lowest and highest eigenvalues :  0.6003E-03,  0.7916E+01
  Finished singularity check of overlap matrix
  | Time :     0.545 s
  Starting LAPACK eigensolver
  Finished Cholesky decomposition
  | Time :     0.114 s
  Finished transformation to standard eigenproblem
  | Time :     0.207 s
  Finished solving standard eigenproblem
  | Time :     0.627 s
  Finished back-transformation of eigenvectors
  | Time :     0.075 s

  Obtaining occupation numbers and electronic chemical potential using ELSI.
  | Note that, for insulating systems, the printed 'chemical potential' value is not uniquely defined.
  | It can be anywhere in the energy gap, as long as it correctly separates occupied and unoccupied states.
  | In systems with a gap, the physically relevant chemical potential is the VBM or HOMO.

  | Chemical potential (Fermi level):    -5.32300163 eV
  Available memory per node after advance_KS_solution [GB]:    768.70
  Writing Kohn-Sham eigenvalues.
  K-point:       1 at    0.000000    0.000000    0.000000 (in units of recip. lattice)

  State    Occupation    Eigenvalue [Ha]    Eigenvalue [eV]
      1       2.00000        -179.962391        -4897.02582
      2       2.00000        -179.962391        -4897.02582
      3       2.00000        -179.962391        -4897.02582
      4       2.00000        -179.962391        -4897.02581
      5       2.00000        -179.962390        -4897.02580
      6       2.00000        -179.962390        -4897.02580
      7       2.00000        -179.962390        -4897.02580
      8       2.00000        -179.962390        -4897.02580
      9       2.00000        -179.962390        -4897.02580
     10       2.00000        -179.962390        -4897.02580
     11       2.00000        -179.962390        -4897.02580
     12       2.00000        -179.962390        -4897.02580
     13       2.00000        -179.962390        -4897.02580
     14       2.00000        -179.962390        -4897.02580
     15       2.00000        -179.962390        -4897.02579
     16       2.00000        -179.962390        -4897.02579
     17       2.00000         -19.737973         -537.09757
     18       2.00000         -19.737973         -537.09757
     19       2.00000         -19.737973         -537.09757
     20       2.00000         -19.737973         -537.09756
     21       2.00000         -19.737972         -537.09755
     22       2.00000         -19.737972         -537.09755
     23       2.00000         -19.737972         -537.09755
     24       2.00000         -19.737972         -537.09755
     25       2.00000         -19.737972         -537.09755
     26       2.00000         -19.737972         -537.09755
     27       2.00000         -19.737972         -537.09755
     28       2.00000         -19.737972         -537.09755
     29       2.00000         -19.737972         -537.09755
     30       2.00000         -19.737972         -537.09754
     31       2.00000         -19.737972         -537.09754
     32       2.00000         -19.737972         -537.09754
     33       2.00000         -19.034687         -517.96018
     34       2.00000         -19.034674         -517.95983
     35       2.00000         -19.034667         -517.95963
     36       2.00000         -19.034665         -517.95960
     37       2.00000         -19.034661         -517.95948
     38       2.00000         -19.034659         -517.95942
     39       2.00000         -19.034658         -517.95941
     40       2.00000         -19.034658         -517.95939
     41       2.00000         -19.034658         -517.95939
     42       2.00000         -19.034658         -517.95939
     43       2.00000         -19.034658         -517.95939
     44       2.00000         -19.034656         -517.95935
     45       2.00000         -19.034656         -517.95935
     46       2.00000         -19.034656         -517.95934
     47       2.00000         -19.034656         -517.95933
     48       2.00000         -19.034656         -517.95933
     49       2.00000         -19.034655         -517.95932
     50       2.00000         -19.034653         -517.95927
     51       2.00000         -19.034653         -517.95927
     52       2.00000         -19.034653         -517.95927
     53       2.00000         -19.034653         -517.95927
     54       2.00000         -19.034653         -517.95927
     55       2.00000         -19.034652         -517.95924
     56       2.00000         -19.034652         -517.95922
     57       2.00000         -19.034652         -517.95922
     58       2.00000         -19.034652         -517.95922
     59       2.00000         -19.034652         -517.95922
     60       2.00000         -19.034650         -517.95919
     61       2.00000         -19.034646         -517.95908
     62       2.00000         -19.034645         -517.95904
     63       2.00000         -19.034638         -517.95884
     64       2.00000         -19.034625         -517.95849
     65       2.00000         -16.328141         -444.31132
     66       2.00000         -16.328141         -444.31132
     67       2.00000         -16.328141         -444.31131
     68       2.00000         -16.328141         -444.31131
     69       2.00000         -16.328140         -444.31130
     70       2.00000         -16.328140         -444.31129
     71       2.00000         -16.328140         -444.31129
     72       2.00000         -16.328140         -444.31129
     73       2.00000         -16.328140         -444.31129
     74       2.00000         -16.328140         -444.31129
     75       2.00000         -16.328140         -444.31129
     76       2.00000         -16.328140         -444.31129
     77       2.00000         -16.328140         -444.31129
     78       2.00000         -16.328140         -444.31129
     79       2.00000         -16.328140         -444.31129
     80       2.00000         -16.328140         -444.31129
     81       2.00000         -16.327828         -444.30280
     82       2.00000         -16.327828         -444.30280
     83       2.00000         -16.327828         -444.30280
     84       2.00000         -16.327828         -444.30279
     85       2.00000         -16.327827         -444.30278
     86       2.00000         -16.327827         -444.30278
     87       2.00000         -16.327827         -444.30278
     88       2.00000         -16.327827         -444.30278
     89       2.00000         -16.327827         -444.30278
     90       2.00000         -16.327827         -444.30278
     91       2.00000         -16.327827         -444.30278
     92       2.00000         -16.327827         -444.30278
     93       2.00000         -16.327827         -444.30278
     94       2.00000         -16.327827         -444.30278
     95       2.00000         -16.327827         -444.30277
     96       2.00000         -16.327827         -444.30277
     97       2.00000         -16.327817         -444.30250
     98       2.00000         -16.327817         -444.30250
     99       2.00000         -16.327816         -444.30249
    100       2.00000         -16.327816         -444.30248
    101       2.00000         -16.327816         -444.30247
    102       2.00000         -16.327816         -444.30247
    103       2.00000         -16.327816         -444.30247
    104       2.00000         -16.327816         -444.30247
    105       2.00000         -16.327816         -444.30247
    106       2.00000         -16.327816         -444.30247
    107       2.00000         -16.327816         -444.30247
    108       2.00000         -16.327816         -444.30247
    109       2.00000         -16.327816         -444.30247
    110       2.00000         -16.327816         -444.30247
    111       2.00000         -16.327815         -444.30246
    112       2.00000         -16.327815         -444.30246
    113       2.00000          -2.309744          -62.85134
    114       2.00000          -2.309367          -62.84106
    115       2.00000          -2.309366          -62.84103
    116       2.00000          -2.309364          -62.84099
    117       2.00000          -2.309364          -62.84099
    118       2.00000          -2.309363          -62.84097
    119       2.00000          -2.309363          -62.84097
    120       2.00000          -2.308985          -62.83068
    121       2.00000          -2.307581          -62.79249
    122       2.00000          -2.307581          -62.79247
    123       2.00000          -2.307580          -62.79246
    124       2.00000          -2.307580          -62.79245
    125       2.00000          -2.307580          -62.79244
    126       2.00000          -2.307580          -62.79244
    127       2.00000          -2.307579          -62.79243
    128       2.00000          -2.307579          -62.79243
    129       2.00000          -1.465053          -39.86611
    130       2.00000          -1.465053          -39.86611
    131       2.00000          -1.465051          -39.86607
    132       2.00000          -1.465051          -39.86607
    133       2.00000          -1.464431          -39.84920
    134       2.00000          -1.464430          -39.84916
    135       2.00000          -1.464358          -39.84720
    136       2.00000          -1.464356          -39.84716
    137       2.00000          -1.450505          -39.47024
    138       2.00000          -1.450504          -39.47023
    139       2.00000          -1.449877          -39.45316
    140       2.00000          -1.449876          -39.45314
    141       2.00000          -1.446960          -39.37379
    142       2.00000          -1.446960          -39.37379
    143       2.00000          -1.446959          -39.37376
    144       2.00000          -1.446959          -39.37376
    145       2.00000          -1.443192          -39.27126
    146       2.00000          -1.443192          -39.27125
    147       2.00000          -1.443190          -39.27119
    148       2.00000          -1.443190          -39.27119
    149       2.00000          -1.442191          -39.24402
    150       2.00000          -1.441609          -39.22818
    151       2.00000          -1.441607          -39.22812
    152       2.00000          -1.441479          -39.22463
    153       2.00000          -1.441476          -39.22457
    154       2.00000          -1.441410          -39.22276
    155       2.00000          -1.441410          -39.22276
    156       2.00000          -1.441409          -39.22273
    157       2.00000          -1.441409          -39.22273
    158       2.00000          -1.441408          -39.22270
    159       2.00000          -1.441407          -39.22267
    160       2.00000          -1.440764          -39.20519
    161       2.00000          -1.440764          -39.20519
    162       2.00000          -1.440762          -39.20513
    163       2.00000          -1.440762          -39.20513
    164       2.00000          -1.440630          -39.20155
    165       2.00000          -1.440071          -39.18633
    166       2.00000          -1.440071          -39.18631
    167       2.00000          -1.439991          -39.18415
    168       2.00000          -1.439990          -39.18413
    169       2.00000          -1.439964          -39.18340
    170       2.00000          -1.439964          -39.18340
    171       2.00000          -1.439963          -39.18338
    172       2.00000          -1.439963          -39.18338
    173       2.00000          -1.439894          -39.18152
    174       2.00000          -1.439893          -39.18149
    175       2.00000          -1.439543          -39.17195
    176       2.00000          -1.439542          -39.17193
    177       2.00000          -1.067796          -29.05622
    178       2.00000          -1.048846          -28.54055
    179       2.00000          -1.048845          -28.54052
    180       2.00000          -1.044108          -28.41163
    181       2.00000          -1.044107          -28.41159
    182       2.00000          -1.044106          -28.41157
    183       2.00000          -1.044104          -28.41152
    184       2.00000          -1.036389          -28.20159
    185       2.00000          -1.036389          -28.20158
    186       2.00000          -1.036388          -28.20155
    187       2.00000          -1.036387          -28.20153
    188       2.00000          -1.034370          -28.14663
    189       2.00000          -1.028240          -27.97982
    190       2.00000          -1.028239          -27.97982
    191       2.00000          -1.026002          -27.91893
    192       2.00000          -1.026002          -27.91892
    193       2.00000          -1.017628          -27.69106
    194       2.00000          -1.017626          -27.69101
    195       2.00000          -1.014632          -27.60955
    196       2.00000          -1.014630          -27.60949
    197       2.00000          -1.013928          -27.59037
    198       2.00000          -1.013927          -27.59035
    199       2.00000          -1.013925          -27.59031
    200       2.00000          -1.013925          -27.59029
    201       2.00000          -1.008265          -27.43628
    202       2.00000          -1.008264          -27.43625
    203       2.00000          -1.006560          -27.38988
    204       2.00000          -1.006559          -27.38987
    205       2.00000          -1.006559          -27.38986
    206       2.00000          -1.006559          -27.38985
    207       2.00000          -1.005304          -27.35571
    208       2.00000          -1.005303          -27.35568
    209       2.00000          -0.584947          -15.91721
    210       2.00000          -0.574040          -15.62043
    211       2.00000          -0.574038          -15.62037
    212       2.00000          -0.563053          -15.32146
    213       2.00000          -0.556228          -15.13573
    214       2.00000          -0.556227          -15.13570
    215       2.00000          -0.556226          -15.13567
    216       2.00000          -0.556225          -15.13564
    217       2.00000          -0.555700          -15.12136
    218       2.00000          -0.555698          -15.12132
    219       2.00000          -0.555697          -15.12128
    220       2.00000          -0.555695          -15.12124
    221       2.00000          -0.548918          -14.93681
    222       2.00000          -0.548918          -14.93681
    223       2.00000          -0.547053          -14.88608
    224       2.00000          -0.543940          -14.80137
    225       2.00000          -0.543938          -14.80131
    226       2.00000          -0.538174          -14.64447
    227       2.00000          -0.538174          -14.64445
    228       2.00000          -0.522768          -14.22523
    229       2.00000          -0.522766          -14.22519
    230       2.00000          -0.520470          -14.16272
    231       2.00000          -0.520470          -14.16271
    232       2.00000          -0.520467          -14.16262
    233       2.00000          -0.520466          -14.16260
    234       2.00000          -0.516524          -14.05532
    235       2.00000          -0.516523          -14.05532
    236       2.00000          -0.514616          -14.00343
    237       2.00000          -0.514616          -14.00342
    238       2.00000          -0.513759          -13.98010
    239       2.00000          -0.513757          -13.98005
    240       2.00000          -0.513755          -13.97998
    241       2.00000          -0.513753          -13.97993
    242       2.00000          -0.512291          -13.94014
    243       2.00000          -0.512287          -13.94004
    244       2.00000          -0.510111          -13.88082
    245       2.00000          -0.510110          -13.88080
    246       2.00000          -0.510110          -13.88079
    247       2.00000          -0.510109          -13.88077
    248       2.00000          -0.509228          -13.85679
    249       2.00000          -0.509226          -13.85674
    250       2.00000          -0.501136          -13.63661
    251       2.00000          -0.501133          -13.63653
    252       2.00000          -0.501125          -13.63630
    253       2.00000          -0.501122          -13.63623
    254       2.00000          -0.498521          -13.56544
    255       2.00000          -0.498520          -13.56543
    256       2.00000          -0.498518          -13.56535
    257       2.00000          -0.498517          -13.56534
    258       2.00000          -0.497999          -13.55125
    259       2.00000          -0.497999          -13.55124
    260       2.00000          -0.490271          -13.34096
    261       2.00000          -0.490267          -13.34086
    262       2.00000          -0.490118          -13.33680
    263       2.00000          -0.490117          -13.33677
    264       2.00000          -0.489361          -13.31619
    265       2.00000          -0.489360          -13.31616
    266       2.00000          -0.485240          -13.20406
    267       2.00000          -0.485240          -13.20405
    268       2.00000          -0.485240          -13.20404
    269       2.00000          -0.485240          -13.20404
    270       2.00000          -0.474239          -12.90470
    271       2.00000          -0.473967          -12.89731
    272       2.00000          -0.473966          -12.89726
    273       2.00000          -0.465311          -12.66177
    274       2.00000          -0.465308          -12.66167
    275       2.00000          -0.464328          -12.63501
    276       2.00000          -0.464326          -12.63495
    277       2.00000          -0.464326          -12.63494
    278       2.00000          -0.464323          -12.63488
    279       2.00000          -0.460413          -12.52848
    280       2.00000          -0.460412          -12.52844
    281       2.00000          -0.460408          -12.52834
    282       2.00000          -0.460407          -12.52830
    283       2.00000          -0.456178          -12.41323
    284       2.00000          -0.456176          -12.41319
    285       2.00000          -0.453587          -12.34274
    286       2.00000          -0.453585          -12.34268
    287       2.00000          -0.449736          -12.23794
    288       2.00000          -0.449735          -12.23792
    289       2.00000          -0.447452          -12.17580
    290       2.00000          -0.447450          -12.17574
    291       2.00000          -0.446615          -12.15302
    292       2.00000          -0.446615          -12.15301
    293       2.00000          -0.446613          -12.15296
    294       2.00000          -0.446613          -12.15295
    295       2.00000          -0.440314          -11.98156
    296       2.00000          -0.436074          -11.86618
    297       2.00000          -0.436070          -11.86607
    298       2.00000          -0.436069          -11.86603
    299       2.00000          -0.436065          -11.86593
    300       2.00000          -0.435353          -11.84656
    301       2.00000          -0.435353          -11.84655
    302       2.00000          -0.432912          -11.78014
    303       2.00000          -0.432912          -11.78013
    304       2.00000          -0.414647          -11.28311
    305       0.00000          -0.194076           -5.28109
    306       0.00000          -0.191192           -5.20260
    307       0.00000          -0.191191           -5.20257
    308       0.00000          -0.188215           -5.12160
    309       0.00000          -0.188214           -5.12156
    310       0.00000          -0.188213           -5.12154
    311       0.00000          -0.188212           -5.12150
    312       0.00000          -0.187608           -5.10508
    313       0.00000          -0.178121           -4.84691
    314       0.00000          -0.178120           -4.84689
    315       0.00000          -0.178119           -4.84687
    316       0.00000          -0.178119           -4.84686
    317       0.00000          -0.164354           -4.47231
    318       0.00000          -0.164354           -4.47230
    319       0.00000          -0.160734           -4.37378
    320       0.00000          -0.158364           -4.30930
    321       0.00000          -0.158363           -4.30929
    322       0.00000          -0.157494           -4.28563
    323       0.00000          -0.157493           -4.28560
    324       0.00000          -0.156806           -4.26691
    325       0.00000          -0.156804           -4.26686
    326       0.00000          -0.155912           -4.24257
    327       0.00000          -0.155910           -4.24253
    328       0.00000          -0.153124           -4.16672
    329       0.00000          -0.153123           -4.16668
    330       0.00000          -0.145549           -3.96059
    331       0.00000          -0.145544           -3.96044
    332       0.00000          -0.145542           -3.96039
    333       0.00000          -0.145536           -3.96024
    334       0.00000          -0.138716           -3.77466
    335       0.00000          -0.138716           -3.77465
    336       0.00000          -0.138715           -3.77464
    337       0.00000          -0.138715           -3.77463
    338       0.00000          -0.137213           -3.73376
    339       0.00000          -0.137212           -3.73372
    340       0.00000          -0.134032           -3.64720
    341       0.00000          -0.134028           -3.64708
    342       0.00000          -0.134016           -3.64675
    343       0.00000          -0.134011           -3.64663
    344       0.00000          -0.132149           -3.59596
    345       0.00000          -0.132148           -3.59592
    346       0.00000          -0.131408           -3.57579
    347       0.00000          -0.131406           -3.57575
    348       0.00000          -0.129201           -3.51573
    349       0.00000          -0.129201           -3.51573
    350       0.00000          -0.129200           -3.51572
    351       0.00000          -0.129200           -3.51572
    352       0.00000          -0.105089           -2.85962
    353       0.00000          -0.099106           -2.69682
    354       0.00000          -0.077399           -2.10613
    355       0.00000          -0.077398           -2.10611
    356       0.00000          -0.077398           -2.10610
    357       0.00000          -0.077397           -2.10608
    358       0.00000          -0.071890           -1.95624
    359       0.00000          -0.067479           -1.83621
[...]
    423       0.00000           0.303302            8.25326
    424       0.00000           0.303314            8.25360
    425       0.00000           0.303320            8.25377
    426       0.00000           0.311205            8.46831
    427       0.00000           0.311213            8.46853
    428       0.00000           0.323689            8.80802
    429       0.00000           0.328139            8.92912
    430       0.00000           0.328142            8.92919
    431       0.00000           0.328149            8.92940
    432       0.00000           0.328152            8.92946
    433       0.00000           0.333025            9.06206
    434       0.00000           0.333026            9.06211
    435       0.00000           0.333033            9.06229
    436       0.00000           0.333035            9.06234
    437       0.00000           0.342903            9.33087
    438       0.00000           0.342910            9.33104
    439       0.00000           0.343891            9.35775
    440       0.00000           0.355165            9.66454
    441       0.00000           0.355175            9.66480
    442       0.00000           0.362006            9.85070
    443       0.00000           0.362011            9.85082
    444       0.00000           0.362014            9.85089
    445       0.00000           0.362018            9.85102
    446       0.00000           0.362151            9.85464
    447       0.00000           0.362161            9.85491
    448       0.00000           0.371446           10.10755
    449       0.00000           0.371454           10.10779
    450       0.00000           0.371494           10.10886
    451       0.00000           0.371504           10.10914
    452       0.00000           0.374967           10.20337
    453       0.00000           0.374969           10.20341
    454       0.00000           0.374974           10.20357
    455       0.00000           0.374976           10.20361
    456       0.00000           0.397091           10.80540
    457       0.00000           0.397102           10.80568
    458       0.00000           0.434743           11.82995
    459       0.00000           0.434748           11.83009
    460       0.00000           0.435972           11.86340
    461       0.00000           0.435973           11.86343
    462       0.00000           0.452768           12.32044
    463       0.00000           0.452773           12.32058
    464       0.00000           0.465473           12.66617
    465       0.00000           0.465479           12.66633
    466       0.00000           0.465497           12.66682
    467       0.00000           0.465502           12.66695
    468       0.00000           0.468623           12.75188
    469       0.00000           0.468628           12.75203
    470       0.00000           0.469904           12.78675
    471       0.00000           0.515505           14.02762
    472       0.00000           0.515512           14.02779
    473       0.00000           0.515656           14.03173
    474       0.00000           0.515656           14.03173
    475       0.00000           0.528173           14.37232
    476       0.00000           0.528179           14.37249
    477       0.00000           0.542207           14.75421
    478       0.00000           0.542213           14.75438
    479       0.00000           0.546197           14.86278
    480       0.00000           0.546200           14.86285
    481       0.00000           0.546204           14.86298
    482       0.00000           0.546207           14.86304
    483       0.00000           0.602988           16.40815
    484       0.00000           0.631833           17.19304
    485       0.00000           0.631838           17.19319
    486       0.00000           0.643417           17.50827
    487       0.00000           0.647024           17.60642
    488       0.00000           0.647030           17.60658

  What follows are estimated values for band gap, HOMO, LUMO, etc.
  | They are estimated on a discrete k-point grid and not necessarily exact.
  | For converged numbers, create a DOS and/or band structure plot on a denser k-grid.

  Highest occupied state (VBM) at     -8.70306532 eV (relative to internal zero)
  | Occupation number:      2.00000000
  | K-point:       1 at    0.000000    0.000000    0.000000 (in units of recip. lattice)

  Lowest unoccupied state (CBM) at    -6.93715993 eV (relative to internal zero)
  | Occupation number:      0.00000000
  | K-point:       1 at    0.000000    0.000000    0.000000 (in units of recip. lattice)

  ESTIMATED overall HOMO-LUMO gap:      1.76590539 eV between HOMO at k-point 1 and LUMO at k-point 1
  | This appears to be a direct band gap.
  The gap value is above 0.2 eV. Unless you are using a very sparse k-point grid,
  this system is most likely an insulator or a semiconductor.

  Total energy components:
  | Sum of eigenvalues            :       -9515.89723633 Ha     -258940.73856033 eV
  | XC energy correction          :        -948.95332338 Ha      -25822.33375514 eV
  | XC potential correction       :        1226.95314855 Ha       33387.09388862 eV
  | Free-atom electrostatic energy:       -6841.45667540 Ha     -186165.50813437 eV
  | Hartree energy correction     :           7.58003967 Ha         206.26337400 eV
  | Entropy correction            :          -0.00000000 Ha          -0.00000000 eV
  | ---------------------------
  | Total energy                  :      -16071.77404690 Ha     -437335.22318722 eV
  | Total energy, T -> 0          :      -16071.77404690 Ha     -437335.22318722 eV  <-- do not rely on this value for anything but (periodic) metals
  | Electronic free energy        :      -16071.77404690 Ha     -437335.22318722 eV

  Derived energy quantities:
  | Kinetic energy                :       16261.02093432 Ha      442484.89300629 eV
  | Electrostatic energy          :      -31383.84165783 Ha     -853997.78243837 eV
  | Energy correction for multipole
  | error in Hartree potential    :           0.16337097 Ha           4.44555028 eV
  | Sum of eigenvalues per atom                           :       -5394.59872001 eV
  | Total energy (T->0) per atom                          :       -9111.15048307 eV  <-- do not rely on this value for anything but (periodic) metals
  | Electronic free energy per atom                       :       -9111.15048307 eV
  End evaluation of scaled ZORA corrections.
  | Time for scaled ZORA corrections            :        7.983 s           7.985 s
------------------------------------------------------------

  Energy and forces in a compact form:
  | Total energy uncorrected      :         -0.437335223187216E+06 eV
  | Total energy corrected        :         -0.437335223187216E+06 eV  <-- do not rely on this value for anything but (periodic) metals
  | Electronic free energy        :         -0.437335223187216E+06 eV

  ------------------------------------ 
  Start decomposition of the XC Energy 
  ------------------------------------ 
  X and C from original XC functional choice 
  Hartree-Fock Energy :          0.000000000 Ha              0.000000000 eV
  X Energy            :       -924.871028567 Ha         -25167.021171253 eV
  C Energy            :        -24.082294816 Ha           -655.312583886 eV
  XC Energy w/o HF    :       -948.953323383 Ha         -25822.333755140 eV
  Total XC Energy     :       -948.953323383 Ha         -25822.333755140 eV
  ------------------------------------ 
  LDA X and C from self-consistent density 
  X Energy LDA        :       -858.573613955 Ha         -23362.976730898 eV
  C Energy LDA        :        -46.967885128 Ha          -1278.061181369 eV
  ------------------------------------ 
  End decomposition of the XC Energy 
  ------------------------------------ 

------------------------------------------------------------

  ------------------------------------------------------------
                   Starting Mulliken Analysis
  ------------------------------------------------------------

  Performing Mulliken charge analysis on all atoms.
  Full analysis will be written to separate file 'Mulliken.out'.
  Summary of the per-atom charge analysis:
  |
  |  atom       electrons          charge             l=0             l=1             l=2             l=3
  |     1       20.751833        1.248167        5.963291       12.509158        2.134311        0.145072
  |     2       20.751829        1.248171        5.963299       12.509156        2.134305        0.145070
  |     3        8.624067       -0.624067        3.847988        4.766200        0.009880
  |     4        8.624095       -0.624095        3.848014        4.766200        0.009880
  |     5        8.624074       -0.624074        3.848005        4.766189        0.009879
  |     6        8.624050       -0.624050        3.848001        4.766167        0.009881
  |     7       20.751833        1.248167        5.963291       12.509158        2.134311        0.145072
  |     8       20.751833        1.248167        5.963286       12.509157        2.134310        0.145080
  |     9        8.624067       -0.624067        3.847988        4.766200        0.009880
  |    10        8.624095       -0.624095        3.848014        4.766200        0.009880
  |    11        8.624089       -0.624089        3.848006        4.766205        0.009878
  |    12        8.624108       -0.624108        3.848009        4.766223        0.009876
  |    13       20.751832        1.248168        5.963291       12.509158        2.134311        0.145072
  |    14       20.751855        1.248145        5.963278       12.509164        2.134331        0.145081
  |    15        8.624084       -0.624084        3.847978        4.766228        0.009879
  |    16        8.624076       -0.624076        3.848022        4.766173        0.009882
  |    17        8.624085       -0.624085        3.847999        4.766206        0.009880
  |    18        8.624081       -0.624081        3.847999        4.766202        0.009880
  |    19       20.751832        1.248168        5.963291       12.509158        2.134311        0.145072
  |    20       20.751822        1.248178        5.963297       12.509154        2.134300        0.145070
  |    21        8.624084       -0.624084        3.847978        4.766228        0.009879
  |    22        8.624076       -0.624076        3.848022        4.766173        0.009882
  |    23        8.624073       -0.624073        3.848001        4.766191        0.009880
  |    24        8.624083       -0.624083        3.848004        4.766201        0.009879
  |    25       20.751832        1.248168        5.963291       12.509158        2.134311        0.145072
  |    26       20.751861        1.248139        5.963275       12.509165        2.134338        0.145083
  |    27        8.624089       -0.624089        3.847978        4.766232        0.009879
  |    28        8.624081       -0.624081        3.848022        4.766177        0.009882
  |    29        8.624077       -0.624077        3.847994        4.766202        0.009881
  |    30        8.624088       -0.624088        3.847996        4.766211        0.009880
  |    31       20.751832        1.248168        5.963291       12.509158        2.134311        0.145072
  |    32       20.751828        1.248172        5.963294       12.509155        2.134306        0.145072
  |    33        8.624089       -0.624089        3.847978        4.766232        0.009879
  |    34        8.624081       -0.624081        3.848022        4.766177        0.009882
  |    35        8.624080       -0.624080        3.847999        4.766200        0.009881
  |    36        8.624076       -0.624076        3.847999        4.766196        0.009881
  |    37       20.751832        1.248168        5.963291       12.509158        2.134311        0.145073
  |    38       20.751850        1.248150        5.963286       12.509163        2.134328        0.145073
  |    39        8.624071       -0.624071        3.847986        4.766205        0.009880
  |    40        8.624098       -0.624098        3.848012        4.766206        0.009880
  |    41        8.624052       -0.624052        3.847989        4.766179        0.009884
  |    42        8.624072       -0.624072        3.847992        4.766198        0.009882
  |    43       20.751832        1.248168        5.963291       12.509158        2.134311        0.145072
  |    44       20.751853        1.248147        5.963273       12.509164        2.134333        0.145084
  |    45        8.624071       -0.624071        3.847986        4.766205        0.009880
  |    46        8.624098       -0.624098        3.848012        4.766206        0.009880
  |    47        8.624111       -0.624111        3.847997        4.766235        0.009879
  |    48        8.624087       -0.624087        3.847992        4.766213        0.009881
  |
  | Total      608.000000       -0.000000
 
  Writing Mulliken decomposition to disk ...

  Mulliken analysis                                       :  max(cpu_time)    wall_clock(cpu1)
  | Time for Mulliken analysis                            :         12.917              12.918
  | Total time for Mulliken analysis                      :         12.917              12.918
------------------------------------------------------------

------------------------------------------------------------------------------
  Final output of selected total energy values:

  The following output summarizes some interesting total energy values
  at the end of a run (AFTER all relaxation, molecular dynamics, etc.).

  | Total energy of the DFT / Hartree-Fock s.c.f. calculation      :        -437335.223187216 eV
  | Final zero-broadening corrected energy (caution - metals only) :        -437335.223187216 eV
  | For reference only, the value of 1 Hartree used in FHI-aims is :             27.211384500 eV
  | For reference only, the overall average (free atom contribution
  | + realspace contribution) of the electrostatic potential after
  | s.c.f. convergence is                                          :            -17.021439894 eV

  Before relying on these values, please be sure to understand exactly which
  total energy value is referred to by a given number. Different objects may
  all carry the same name 'total energy'. Definitions:

  Total energy of the DFT / Hartree-Fock s.c.f. calculation:
  | Note that this energy does not include ANY quantities calculated after the
  | s.c.f. cycle, in particular not ANY RPA, MP2, etc. many-body perturbation terms.
  | Scalar relativistic effects have been included in the 'scaled ZORA' approximation.

  Final zero-broadening corrected energy:
  | For metallic systems only, a broadening of the occupation numbers at the Fermi
  | level can be extrapolated back to zero broadening by an electron-gas inspired
  | formula. For all systems that are not real metals, this value can be
  | meaningless and should be avoided.

------------------------------------------------------------------------------
  Methods described in the following list of references were used in this FHI-aims run.
  If you publish the results, please make sure to cite these reference if they apply.
  FHI-aims is an academic code, and for our developers (often, Ph.D. students
  and postdocs), scientific credit in the community is essential.
  Thank you for helping us!

  For any use of FHI-aims, please cite:

    Volker Blum, Ralf Gehrke, Felix Hanke, Paula Havu, Ville Havu,
    Xinguo Ren, Karsten Reuter, and Matthias Scheffler
    'Ab initio molecular simulations with numeric atom-centered orbitals'
    Computer Physics Communications 180, 2175-2196 (2009)
    http://doi.org/10.1016/j.cpc.2009.06.022


  The provided symmetry information was generated with SPGlib:

    Atsushi Togo, Yusuke Seto, Dimitar Pashov
    SPGlib 1.7.3 obtained from http://spglib.sourceforge.net
    Licence: New BSD license
    Copyright (C) 2008 Atsushi Togo


  The ELSI infrastructure was used in your run to solve the Kohn-Sham electronic structure.
  Please check out https://wordpress.elsi-interchange.org to learn more.
  If scalability is important for your project, please acknowledge ELSI by citing:

    V. W-z. Yu, F. Corsetti, A. Garcia, W. P. Huhn, M. Jacquelin, W. Jia,
    B. Lange, L. Lin, J. Lu, W. Mi, A. Seifitokaldani, A. Vazquez-Mayagoitia,
    C. Yang, H. Yang, and V. Blum
    'ELSI: A unified software interface for Kohn-Sham electronic structure solvers'
    Computer Physics Communications 222, 267-285 (2018).
    http://doi.org/10.1016/j.cpc.2017.09.007


  For the real-space grid partitioning and parallelization used in this calculation, please cite:

    Ville Havu, Volker Blum, Paula Havu, and Matthias Scheffler,
    'Efficient O(N) integration for all-electron electronic structure calculation'
    'using numerically tabulated basis functions'
    Journal of Computational Physics 228, 8367-8379 (2009).
    http://doi.org/10.1016/j.jcp.2009.08.008

  Of course, there are many other important community references, e.g., those cited in the
  above references. Our list is limited to references that describe implementations in the
  FHI-aims code. The reason is purely practical (length of this list) - please credit others as well.

------------------------------------------------------------
          Leaving FHI-aims.
          Date     :  20241019, Time     :  150954.219

          Computational steps:
          | Number of self-consistency cycles          :           18
          | Number of SCF (re)initializations          :            1

          Detailed time accounting                     :  max(cpu_time)    wall_clock(cpu1)
          | Total time                                  :      269.916 s         269.961 s
          | Preparation time                            :        0.329 s           0.326 s
          | Boundary condition initalization            :        0.103 s           0.103 s
          | Grid partitioning                           :        0.237 s           0.237 s
          | Preloading free-atom quantities on grid     :        1.092 s           1.092 s
          | Free-atom superposition energy              :        0.131 s           0.131 s
          | Total time for integrations                 :       94.860 s          94.865 s
          | Total time for solution of K.-S. equations  :       64.955 s          64.961 s
          | Total time for density update               :       80.827 s          80.829 s
          | Total time for mixing                       :        0.110 s           0.111 s
          | Total time for Hartree multipole update     :        0.111 s           0.110 s
          | Total time for Hartree multipole sum        :        6.140 s           6.142 s
          | Total time for total energy evaluation      :        0.020 s           0.022 s
          | Total time for scaled ZORA corrections      :        7.983 s           7.985 s
          | Total time for Mulliken analysis            :       12.917 s          12.918 s

          Partial memory accounting:
          | Residual value for overall tracked memory usage across tasks:     0.000000 MB (should be 0.000000 MB)
          | Peak values for overall tracked memory usage:
          |   Minimum:      107.276 MB (on task  0 after allocating eval_tmp)
          |   Maximum:      114.348 MB (on task  8 after allocating eval_tmp)
          |   Average:      111.692 MB
          | Largest tracked array allocation:
          |   Minimum:       16.182 MB (overlap_matrix on task  0)
          |   Maximum:       16.182 MB (overlap_matrix on task  0)
          |   Average:       16.182 MB
          Note:  These values currently only include a subset of arrays which are explicitly tracked.
          The "true" memory usage will be greater.

          Have a nice day.
------------------------------------------------------------
