------------------------------------------------------------
          Invoking FHI-aims ...

          When using FHI-aims, please cite the following reference:

            Volker Blum, Ralf Gehrke, Felix Hanke, Paula Havu,
            Ville Havu, Xinguo Ren, Karsten Reuter, and Matthias Scheffler,
            'Ab Initio Molecular Simulations with Numeric Atom-Centered Orbitals',
            Computer Physics Communications 180, 2175-2196 (2009)

          In addition, many other developments in FHI-aims are likely important for
          your particular application. If so, please cite them. A partial list of references
          is written at the end of this file. Thank you for giving credit to the authors
          of these developments.

          For general information about FHI-aims please find us at

            https://fhi-aims.org

          Online tutorials can be found at

            https://fhi-aims-club.gitlab.io/tutorials/tutorials-overview/

          For any questions about FHI-aims, please visit our slack channel at

            https://fhi-aims.slack.com

          and our main development and support site at

            https://aims-git.rz-berlin.mpg.de .

          The latter site, in particular, has a wiki to collect information, as well
          as an issue tracker to log discussions, suggest improvements, and report issues
          or bugs. https://aims-git.rz-berlin.mpg.de is also the main development site
          of the project and all new and updated code versions can be obtained there.
          Please send an email to aims-coordinators@fhi-berlin.mpg.de and we will add
          you to these sites. They are for you and everyone is welcome there.

------------------------------------------------------------



  Date     :  20240925, Time     :  145756.419
  Time zero on CPU 1             :   0.915242000000000E+00  s.
  Internal wall clock time zero  :           496508276.419  s.

  FHI-aims created a unique identifier for this run for later identification
  aims_uuid : EF8F27FB-0A64-4923-A56B-8B50BF0C45FA

  Build configuration of the current instance of FHI-aims
  -------------------------------------------------------
  FHI-aims version      : 240605
  Commit number         : b001b2e18
  CMake host system     : Linux-6.5.0-41-generic
  CMake version         : 3.22.1
  Fortran compiler      : /opt/intel/oneapi/mpi/2021.12/bin/mpiifort (IntelLLVM) version 2024.1.0
  Fortran compiler flags: -fc=ifx -O3 -ip -fp-model precise
  C compiler            : /opt/intel/oneapi/mpi/2021.12/bin/mpiicc (IntelLLVM) version 2024.1.0
  C compiler flags      : -cc=icx -O3 -ip -fp-model precise -std=gnu99
  C++ compiler          : /opt/intel/oneapi/mpi/2021.12/bin/mpiicpc (IntelLLVM) version 2024.1.0
  C++ compiler flags    : -cxx=icpx -O3 -ip -fp-model precise -std=c++11
  HIP compiler          :
  HIP compiler flags    :
  HIP GPU arch          :
  Using MPI
  Using ScaLAPACK
  Using LibXC
  Using i-PI
  Using RLSY
  Linking against: /opt/intel/oneapi/mkl/2024.1/lib/intel64/libmkl_intel_lp64.so
                   /opt/intel/oneapi/mkl/2024.1/lib/intel64/libmkl_sequential.so
                   /opt/intel/oneapi/mkl/2024.1/lib/intel64/libmkl_core.so
                   /opt/intel/oneapi/mkl/2024.1/lib/intel64/libmkl_blacs_intelmpi_lp64.so
                   /opt/intel/oneapi/mkl/2024.1/lib/intel64/libmkl_scalapack_lp64.so
                   /opt/intel/oneapi/mkl/2024.1/lib/intel64/libmkl_core.so

  Using      128 parallel tasks.
  Task        0 on host RSL-arvutus reporting.
  Task        1 on host RSL-arvutus reporting.
  Task        2 on host RSL-arvutus reporting.
  Task        3 on host RSL-arvutus reporting.
  Task        4 on host RSL-arvutus reporting.
  Task        5 on host RSL-arvutus reporting.
  Task        6 on host RSL-arvutus reporting.
  Task        7 on host RSL-arvutus reporting.
  Task        8 on host RSL-arvutus reporting.
  Task        9 on host RSL-arvutus reporting.
  Task       10 on host RSL-arvutus reporting.
  Task       11 on host RSL-arvutus reporting.
  Task       12 on host RSL-arvutus reporting.
  Task       13 on host RSL-arvutus reporting.
  Task       14 on host RSL-arvutus reporting.
  Task       15 on host RSL-arvutus reporting.
  Task       16 on host RSL-arvutus reporting.
  Task       17 on host RSL-arvutus reporting.
  Task       18 on host RSL-arvutus reporting.
  Task       19 on host RSL-arvutus reporting.
  Task       20 on host RSL-arvutus reporting.
  Task       21 on host RSL-arvutus reporting.
  Task       22 on host RSL-arvutus reporting.
  Task       23 on host RSL-arvutus reporting.
  Task       24 on host RSL-arvutus reporting.
  Task       25 on host RSL-arvutus reporting.
  Task       26 on host RSL-arvutus reporting.
  Task       27 on host RSL-arvutus reporting.
  Task       28 on host RSL-arvutus reporting.
  Task       29 on host RSL-arvutus reporting.
  Task       30 on host RSL-arvutus reporting.
  Task       31 on host RSL-arvutus reporting.
  Task       32 on host RSL-arvutus reporting.
  Task       33 on host RSL-arvutus reporting.
  Task       34 on host RSL-arvutus reporting.
  Task       35 on host RSL-arvutus reporting.
  Task       36 on host RSL-arvutus reporting.
  Task       37 on host RSL-arvutus reporting.
  Task       38 on host RSL-arvutus reporting.
  Task       39 on host RSL-arvutus reporting.
  Task       40 on host RSL-arvutus reporting.
  Task       41 on host RSL-arvutus reporting.
  Task       42 on host RSL-arvutus reporting.
  Task       43 on host RSL-arvutus reporting.
  Task       44 on host RSL-arvutus reporting.
  Task       45 on host RSL-arvutus reporting.
  Task       46 on host RSL-arvutus reporting.
  Task       47 on host RSL-arvutus reporting.
  Task       48 on host RSL-arvutus reporting.
  Task       49 on host RSL-arvutus reporting.
  Task       50 on host RSL-arvutus reporting.
  Task       51 on host RSL-arvutus reporting.
  Task       52 on host RSL-arvutus reporting.
  Task       53 on host RSL-arvutus reporting.
  Task       54 on host RSL-arvutus reporting.
  Task       55 on host RSL-arvutus reporting.
  Task       56 on host RSL-arvutus reporting.
  Task       57 on host RSL-arvutus reporting.
  Task       58 on host RSL-arvutus reporting.
  Task       59 on host RSL-arvutus reporting.
  Task       60 on host RSL-arvutus reporting.
  Task       61 on host RSL-arvutus reporting.
  Task       62 on host RSL-arvutus reporting.
  Task       63 on host RSL-arvutus reporting.
  Task       64 on host RSL-arvutus reporting.
  Task       65 on host RSL-arvutus reporting.
  Task       66 on host RSL-arvutus reporting.
  Task       67 on host RSL-arvutus reporting.
  Task       68 on host RSL-arvutus reporting.
  Task       69 on host RSL-arvutus reporting.
  Task       70 on host RSL-arvutus reporting.
  Task       71 on host RSL-arvutus reporting.
  Task       72 on host RSL-arvutus reporting.
  Task       73 on host RSL-arvutus reporting.
  Task       74 on host RSL-arvutus reporting.
  Task       75 on host RSL-arvutus reporting.
  Task       76 on host RSL-arvutus reporting.
  Task       77 on host RSL-arvutus reporting.
  Task       78 on host RSL-arvutus reporting.
  Task       79 on host RSL-arvutus reporting.
  Task       80 on host RSL-arvutus reporting.
  Task       81 on host RSL-arvutus reporting.
  Task       82 on host RSL-arvutus reporting.
  Task       83 on host RSL-arvutus reporting.
  Task       84 on host RSL-arvutus reporting.
  Task       85 on host RSL-arvutus reporting.
  Task       86 on host RSL-arvutus reporting.
  Task       87 on host RSL-arvutus reporting.
  Task       88 on host RSL-arvutus reporting.
  Task       89 on host RSL-arvutus reporting.
  Task       90 on host RSL-arvutus reporting.
  Task       91 on host RSL-arvutus reporting.
  Task       92 on host RSL-arvutus reporting.
  Task       93 on host RSL-arvutus reporting.
  Task       94 on host RSL-arvutus reporting.
  Task       95 on host RSL-arvutus reporting.
  Task       96 on host RSL-arvutus reporting.
  Task       97 on host RSL-arvutus reporting.
  Task       98 on host RSL-arvutus reporting.
  Task       99 on host RSL-arvutus reporting.
  Task      100 on host RSL-arvutus reporting.
  Task      101 on host RSL-arvutus reporting.
  Task      102 on host RSL-arvutus reporting.
  Task      103 on host RSL-arvutus reporting.
  Task      104 on host RSL-arvutus reporting.
  Task      105 on host RSL-arvutus reporting.
  Task      106 on host RSL-arvutus reporting.
  Task      107 on host RSL-arvutus reporting.
  Task      108 on host RSL-arvutus reporting.
  Task      109 on host RSL-arvutus reporting.
  Task      110 on host RSL-arvutus reporting.
  Task      111 on host RSL-arvutus reporting.
  Task      112 on host RSL-arvutus reporting.
  Task      113 on host RSL-arvutus reporting.
  Task      114 on host RSL-arvutus reporting.
  Task      115 on host RSL-arvutus reporting.
  Task      116 on host RSL-arvutus reporting.
  Task      117 on host RSL-arvutus reporting.
  Task      118 on host RSL-arvutus reporting.
  Task      119 on host RSL-arvutus reporting.
  Task      120 on host RSL-arvutus reporting.
  Task      121 on host RSL-arvutus reporting.
  Task      122 on host RSL-arvutus reporting.
  Task      123 on host RSL-arvutus reporting.
  Task      124 on host RSL-arvutus reporting.
  Task      125 on host RSL-arvutus reporting.
  Task      126 on host RSL-arvutus reporting.
  Task      127 on host RSL-arvutus reporting.

  Memory overcommitment is allowed on your operating system.

  Obtaining array dimensions for all initial allocations:
  
  -----------------------------------------------------------------------
  Parsing control.in (first pass over file, find array dimensions only).
  The contents of control.in will be repeated verbatim below
  unless switched off by setting 'verbatim_writeout .false.' .
  in the first line of control.in .
  -----------------------------------------------------------------------
  
    xc              pbe
    relativistic    atomic_zora scalar
    k_grid          8 8 12
  
    output          Mulliken
  
  
  ################################################################################
  #
  #  FHI-aims code project
  #  VB, Fritz-Haber Institut, 2009
  #
  #  Suggested "light" defaults for Ti atom (to be pasted into control.in file)
  #  Be sure to double-check any results obtained with these settings for post-processing,
  #  e.g., with the "tight" defaults and larger basis sets.
  #
  ################################################################################
    species        Ti
  #     global species definitions
      nucleus             22
      mass                47.867
  #
      l_hartree           4
  #
      cut_pot             3.5          1.5  1.0
      basis_dep_cutoff    1e-4
  #
      radial_base         48 5.0
      radial_multiplier   1
      angular_grids       specified
        division   0.5171   50
        division   0.9824  110
        division   1.2917  194
        division   1.4940  302
  #      division   1.6934  434
  #      division   1.8425  590
  #      division   2.1901  770
  #      division   2.2896  974
  #      division   2.8244 1202
  #      outer_grid  974
        outer_grid  302
  ################################################################################
  #
  #  Definition of "minimal" basis
  #
  ################################################################################
  #     valence basis states
      valence      4  s   2.
      valence      3  p   6.
      valence      3  d   2.
  #     ion occupancy
      ion_occ      4  s   1.
      ion_occ      3  p   6.
      ion_occ      3  d   1.
  ################################################################################
  #
  #  Suggested additional basis functions. For production calculations,
  #  uncomment them one after another (the most important basis functions are
  #  listed first).
  #
  #  Constructed for dimers: 1.6 A, 1.85 A, 2.5 A, 3.25 A, 4.25 A
  #
  ################################################################################
  #  "First tier" - improvements: -396.25 meV to -19.41 meV
       hydro 4 f 8
       hydro 3 d 2.7
       ionic 4 p auto
  #     hydro 5 g 11.6
       ionic 4 s auto
  #  "Second tier" - improvements: -16.30 meV to -2.03 meV
  #     hydro 3 d 4.4
  #     hydro 6 h 16
  #     hydro 4 f 9.4
  #     hydro 4 p 4.5
  #     hydro 1 s 0.5
  #  "Third tier" - improvements: -6.28 meV to -0.37 meV
  #     hydro 4 d 6.4
  #     hydro 4 f 10
  #     hydro 5 g 12
  #     hydro 2 p 1.7
  #     hydro 6 h 16.4
  #     hydro 4 s 3.8
  #  Further basis functions: -0.45 meV and smaller improvements
  #     hydro 3 d 8.8
  #     hydro 5 p 18
  #     hydro 4 f 22.4
  #     hydro 5 f 7.2  # -0.16 meV
  #     hydro 3 d 2.1  # -0.11 meV
  #     hydro 5 g 7.4  # -0.09 meV
  
  
  ################################################################################
  #
  #  FHI-aims code project
  #  VB, Fritz-Haber Institut, 2009
  #
  #  Suggested "light" defaults for O atom (to be pasted into control.in file)
  #  Be sure to double-check any results obtained with these settings for post-processing,
  #  e.g., with the "tight" defaults and larger basis sets.
  #
  ################################################################################
    species        O
  #     global species definitions
      nucleus             8
      mass                15.9994
  #
      l_hartree           4
  #
      cut_pot             3.5  1.5  1.0
      basis_dep_cutoff    1e-4
  #
      radial_base         36 5.0
      radial_multiplier   1
       angular_grids specified
        division   0.2659   50
        division   0.4451  110
        division   0.6052  194
        division   0.7543  302
  #      division   0.8014  434
  #      division   0.8507  590
  #      division   0.8762  770
  #      division   0.9023  974
  #      division   1.2339 1202
  #      outer_grid 974
        outer_grid 302
  ################################################################################
  #
  #  Definition of "minimal" basis
  #
  ################################################################################
  #     valence basis states
      valence      2  s   2.
      valence      2  p   4.
  #     ion occupancy
      ion_occ      2  s   1.
      ion_occ      2  p   3.
  ################################################################################
  #
  #  Suggested additional basis functions. For production calculations,
  #  uncomment them one after another (the most important basis functions are
  #  listed first).
  #
  #  Constructed for dimers: 1.0 A, 1.208 A, 1.5 A, 2.0 A, 3.0 A
  #
  ################################################################################
  #  "First tier" - improvements: -699.05 meV to -159.38 meV
       hydro 2 p 1.8
       hydro 3 d 7.6
       hydro 3 s 6.4
  #  "Second tier" - improvements: -49.91 meV to -5.39 meV
  #     hydro 4 f 11.6
  #     hydro 3 p 6.2
  #     hydro 3 d 5.6
  #     hydro 5 g 17.6
  #     hydro 1 s 0.75
  #  "Third tier" - improvements: -2.83 meV to -0.50 meV
  #     ionic 2 p auto
  #     hydro 4 f 10.8
  #     hydro 4 d 4.7
  #     hydro 2 s 6.8
  #  "Fourth tier" - improvements: -0.40 meV to -0.12 meV
  #     hydro 3 p 5
  #     hydro 3 s 3.3
  #     hydro 5 g 15.6
  #     hydro 4 f 17.6
  #     hydro 4 d 14
  # Further basis functions - -0.08 meV and below
  #     hydro 3 s 2.1
  #     hydro 4 d 11.6
  #     hydro 3 p 16
  #     hydro 2 s 17.2
  
  -----------------------------------------------------------------------
  Completed first pass over input file control.in .
  -----------------------------------------------------------------------
  
  
  -----------------------------------------------------------------------
  Parsing geometry.in (first pass over file, find array dimensions only).
  The contents of geometry.in will be repeated verbatim below
  unless switched off by setting 'verbatim_writeout .false.' .
  in the first line of geometry.in .
  -----------------------------------------------------------------------
  
  #
  # This is the geometry file that corresponds to the current relaxation step.
  # If you do not want this file to be written, set the "write_restart_geometry" flag to .false.
  #  aims_uuid : 9BA3B050-7FA5-4173-AC7B-B01C22C4F404
  #
  lattice_vector      9.28630678      0.00002283     -0.00000001
  lattice_vector      0.00002292      9.28637558     -0.00000001
  lattice_vector     -0.00000004     -0.00000009      5.94535168
  atom_frac       0.00001042      0.00001109     -0.00006141 Ti
  atom_frac       0.25000609      0.25000588      0.25002440 Ti
  atom_frac       0.15277473      0.15278038     -0.00001470 O
  atom_frac       0.34722235      0.34721380     -0.00001473 O
  atom_frac       0.09722691      0.40278923      0.25002243 O
  atom_frac       0.40278389      0.09721906      0.25002244 O
  atom_frac       0.00001042      0.00001109      0.49993931 Ti
  atom_frac       0.25000663      0.25000510      0.75002440 Ti
  atom_frac       0.15277470      0.15278039      0.49998928 O
  atom_frac       0.34722234      0.34721383      0.49998931 O
  atom_frac       0.09723020      0.40278554      0.75002244 O
  atom_frac       0.40277938      0.09722317      0.75002242 O
  atom_frac       0.00001086      0.50002681      0.00006322 Ti
  atom_frac       0.25001347      0.75001190      0.24997562 Ti
  atom_frac       0.15276750      0.65277937      0.00001467 O
  atom_frac       0.34722125      0.84721002      0.00001464 O
  atom_frac       0.09723729      0.90278836      0.24997758 O
  atom_frac       0.40278339      0.59722962      0.24997758 O
  atom_frac       0.00001087      0.50002681      0.50005885 Ti
  atom_frac       0.25001336      0.75001136      0.74997562 Ti
  atom_frac       0.15276750      0.65277936      0.50001078 O
  atom_frac       0.34722126      0.84721002      0.50001081 O
  atom_frac       0.09723256      0.90279194      0.74997759 O
  atom_frac       0.40278670      0.59722516      0.74997760 O
  atom_frac       0.50002657      0.00001063      0.00007883 Ti
  atom_frac       0.75001320      0.25001151      0.24997563 Ti
  atom_frac       0.65277432      0.15277314      0.00001464 O
  atom_frac       0.84721396      0.34721674      0.00001470 O
  atom_frac       0.59723558      0.40278585      0.24997759 O
  atom_frac       0.90278353      0.09723140      0.24997759 O
  atom_frac       0.50002657      0.00001063      0.50004326 Ti
  atom_frac       0.75001331      0.25001207      0.74997563 Ti
  atom_frac       0.65277431      0.15277314      0.50001083 O
  atom_frac       0.84721396      0.34721675      0.50001078 O
  atom_frac       0.59723228      0.40279032      0.74997761 O
  atom_frac       0.90278828      0.09722783      0.74997761 O
  atom_frac       0.50001506      0.50000689     -0.00005619 Ti
  atom_frac       0.75000672      0.75000519      0.25002435 Ti
  atom_frac       0.65277571      0.65277678     -0.00001476 O
  atom_frac       0.84722148      0.84721763     -0.00001475 O
  atom_frac       0.59722846      0.90278389      0.25002240 O
  atom_frac       0.90278138      0.59722504      0.25002238 O
  atom_frac       0.50001506      0.50000689      0.49993407 Ti
  atom_frac       0.75000616      0.75000596      0.75002435 Ti
  atom_frac       0.65277572      0.65277676      0.49998926 O
  atom_frac       0.84722151      0.84721763      0.49998925 O
  atom_frac       0.59723295      0.90277978      0.75002238 O
  atom_frac       0.90277807      0.59722873      0.75002239 O
  #
  # What follows is the current estimated Hessian matrix constructed by the BFGS algorithm.
  # This is NOT the true Hessian matrix of the system.
  # If you do not want this information here, switch it off using the "hessian_to_restart_geometry" keyword.
  #
  trust_radius             0.0015435619
  hessian_file
  
  -----------------------------------------------------------------------
  Completed first pass over input file geometry.in .
  -----------------------------------------------------------------------
  

  Basic array size parameters:
  | Number of species                 :        2
  | Number of atoms                   :       48
  | Number of lattice vectors         :        3
  | Max. basis fn. angular momentum   :        3
  | Max. atomic/ionic basis occupied n:        4
  | Max. number of basis fn. types    :        3
  | Max. radial fns per species/type  :        7
  | Max. logarithmic grid size        :     1383
  | Max. radial integration grid size :       48
  | Max. angular integration grid size:      302
  | Max. angular grid division number :        8
  | Radial grid for Hartree potential :     1383
  | Number of spin channels           :        1

------------------------------------------------------------
          Reading file control.in.
------------------------------------------------------------
  XC: Using PBE gradient-corrected functionals.
  Scalar relativistic treatment of kinetic energy: on-site free-atom approximation to ZORA.
  Found k-point grid:         8         8        12
  Mulliken charge analysis will be performed and summarised to the main output.
  Full Mulliken charge analysis will be written to file 'Mulliken.out'.
 
  Reading configuration options for species Ti                  .
  | Found nuclear charge :  22.0000
  | Found atomic mass :    47.8670000000000      amu
  | Found l_max for Hartree potential  :   4
  | Found cutoff potl. onset [A], width [A], scale factor :    3.50000    1.50000    1.00000
  | Threshold for basis-dependent cutoff potential is   0.100000E-03
  | Found data for basic radial integration grid :    48 points, outermost radius =    5.000 A
  | Found multiplier for basic radial grid :   1
  | Found angular grid specification: user-specified.
  | Specified grid contains     5 separate shells.
  | Check grid settings after all constraints further below.
  | Found free-atom valence shell :  4 s   2.000
  | Found free-atom valence shell :  3 p   6.000
  | Found free-atom valence shell :  3 d   2.000
  | Found free-ion valence shell :  4 s   1.000
  | Found free-ion valence shell :  3 p   6.000
  | Found free-ion valence shell :  3 d   1.000
  | Found hydrogenic basis function :  4 f   8.000
  | Found hydrogenic basis function :  3 d   2.700
  | Found ionic basis function :  4 p , default cutoff radius.
  | Found ionic basis function :  4 s , default cutoff radius.
 | Encountered keyword species, ending the description of species Ti                  .
  Species Ti                  : Missing cutoff potential type.
  Defaulting to exp(1/x)/(1-x)^2 type cutoff potential.
  Species Ti: No 'logarithmic' tag. Using default grid for free atom:
  | Default logarithmic grid data [bohr] : 0.1000E-03 0.1000E+03 0.1012E+01
  | Will include ionic basis functions of  2.0-fold positive Ti                   ion.
  Species Ti: On-site basis accuracy parameter (for Gram-Schmidt orthonormalisation) not specified.
  Using default value basis_acc =  0.1000000E-03.
  Species Ti                  : Using default innermost maximum threshold i_radial=  2 for radial functions.
  Species Ti                  : Default cutoff onset for free atom density etc. : 0.35000000E+01 AA.
  Species Ti                  : Basic radial grid will be enhanced according to radial_multiplier =   1, to contain    48 grid points.
 
  Reading configuration options for species O                   .
  | Found nuclear charge :   8.0000
  | Found atomic mass :    15.9994000000000      amu
  | Found l_max for Hartree potential  :   4
  | Found cutoff potl. onset [A], width [A], scale factor :    3.50000    1.50000    1.00000
  | Threshold for basis-dependent cutoff potential is   0.100000E-03
  | Found data for basic radial integration grid :    36 points, outermost radius =    5.000 A
  | Found multiplier for basic radial grid :   1
  | Found angular grid specification: user-specified.
  | Specified grid contains     5 separate shells.
  | Check grid settings after all constraints further below.
  | Found free-atom valence shell :  2 s   2.000
  | Found free-atom valence shell :  2 p   4.000
  | Found free-ion valence shell :  2 s   1.000
  | Found free-ion valence shell :  2 p   3.000
  | Found hydrogenic basis function :  2 p   1.800
  | Found hydrogenic basis function :  3 d   7.600
  | Found hydrogenic basis function :  3 s   6.400
  Species O                   : Missing cutoff potential type.
  Defaulting to exp(1/x)/(1-x)^2 type cutoff potential.
  Species O : No 'logarithmic' tag. Using default grid for free atom:
  | Default logarithmic grid data [bohr] : 0.1000E-03 0.1000E+03 0.1012E+01
  Species O : On-site basis accuracy parameter (for Gram-Schmidt orthonormalisation) not specified.
  Using default value basis_acc =  0.1000000E-03.
  Species O                   : Using default innermost maximum threshold i_radial=  2 for radial functions.
  Species O                   : Default cutoff onset for free atom density etc. : 0.35000000E+01 AA.
  Species O                   : Basic radial grid will be enhanced according to radial_multiplier =   1, to contain    36 grid points.
 
  Finished reading input file 'control.in'.
 
------------------------------------------------------------


------------------------------------------------------------
          Reading geometry description geometry.in.
------------------------------------------------------------
  Found keyword 'hessian_file', indicating that this is the continuation of a structure optimization.
  However, the control.in file does not request the geometry to be optimized.
  Ignoring the request for a file 'hessian.aims' to be present.
  | The smallest distance between any two atoms is         1.95910904 AA.
  | The first atom of this pair is atom number                     14 .
  | The second atom of this pair is atom number                    16 .
  | Wigner-Seitz cell of the first atom image           0     0     0 .
  | (The Wigner-Seitz cell of the second atom is 0 0 0  by definition.)

  Symmetry information by spglib:
  | Precision set to  0.1E-04
  | Number of Operations  : 1
  | Space group           : 1
  | International         : P1
  | Schoenflies           : C1^1
  Input structure read successfully.
  The structure contains       48 atoms,  and a total of        608.000 electrons.

  Input geometry:
  | Unit cell:
  |        9.28630678        0.00002283       -0.00000001
  |        0.00002292        9.28637558       -0.00000001
  |       -0.00000004       -0.00000009        5.94535168
  | Atomic structure:
  |       Atom                x [A]            y [A]            z [A]
  |    1: Species Ti            0.00009676        0.00010299       -0.00036510
  |    2: Species Ti            2.32163897        2.32165418        1.48648298
  |    3: Species O             1.41871651        1.41877948       -0.00008740
  |    4: Species O             3.22442122        3.22436568       -0.00008758
  |    5: Species O             0.90288814        3.74045427        1.48647127
  |    6: Species O             3.74037699        0.90282188        1.48647133
  |    7: Species Ti            0.00009674        0.00010294        2.97231502
  |    8: Species Ti            2.32164396        2.32164690        4.45915882
  |    9: Species O             1.41871621        1.41877953        2.97261210
  |   10: Species O             3.22442111        3.22436591        2.97261228
  |   11: Species O             0.90291867        3.74041995        4.45914717
  |   12: Species O             3.74033509        0.90286000        4.45914705
  |   13: Species Ti            0.00011231        4.64343676        0.00037586
  |   14: Species Ti            2.32171896        6.96489788        1.48619296
  |   15: Species O             1.41866083        6.06195789        0.00008721
  |   16: Species O             3.22442247        7.86751837        0.00008703
  |   17: Species O             0.90299599        8.38363398        1.48620462
  |   18: Species O             3.74038380        5.54610773        1.48620462
  |   19: Species Ti            0.00011238        4.64343671        2.97302572
  |   20: Species Ti            2.32171792        6.96489282        4.45886880
  |   21: Species O             1.41866081        6.06195775        2.97273992
  |   22: Species O             3.22442254        7.86751832        2.97274010
  |   23: Species O             0.90295204        8.38366718        4.45888051
  |   24: Species O             3.74041452        5.54606627        4.45888057
  |   25: Species Ti            4.64340013        0.00011013        0.00046867
  |   26: Species Ti            6.96485838        2.32171788        1.48619302
  |   27: Species O             6.06186610        1.41872366        0.00008703
  |   28: Species O             7.86749670        3.22440440        0.00008738
  |   29: Species O             5.54612204        3.74043429        1.48620467
  |   30: Species O             8.38352703        0.90294789        1.48620467
  |   31: Species Ti            4.64340011        0.00011008        2.97293303
  |   32: Species Ti            6.96485939        2.32172304        4.45886886
  |   33: Species O             6.06186598        1.41872361        2.97274022
  |   34: Species O             7.86749668        3.22440445        2.97273992
  |   35: Species O             5.54609137        3.74047576        4.45888063
  |   36: Species O             8.38357112        0.90291469        4.45888063
  |   37: Species Ti            4.64330470        4.64326319       -0.00033408
  |   38: Species Ti            6.96480967        6.96484698        1.48648267
  |   39: Species O             6.06189046        6.06194525       -0.00008777
  |   40: Species O             7.86757799        7.86760045       -0.00008771
  |   41: Species O             5.54606738        8.38360388        1.48647108
  |   42: Species O             8.38351853        5.54607662        1.48647096
  |   43: Species Ti            4.64330468        4.64326314        2.97228385
  |   44: Species Ti            6.96480445        6.96485409        4.45915851
  |   45: Species O             6.06189054        6.06194502        2.97261197
  |   46: Species O             7.86757825        7.86760041        2.97261191
  |   47: Species O             5.54610905        8.38356567        4.45914680
  |   48: Species O             8.38348777        5.54611084        4.45914686

  Lattice parameters for 3D lattice (in Angstroms) :     9.286307    9.286376    5.945352
  Angle(s) between unit vectors (in degrees)       :    90.000001   90.000000   89.999718


  Quantities derived from the lattice vectors (in Angstrom^-1):
  | Reciprocal lattice vector 1:  0.676608 -0.000002  0.000000
  | Reciprocal lattice vector 2: -0.000002  0.676603  0.000000
  | Reciprocal lattice vector 3:  0.000000  0.000000  1.056823
  | Unit cell volume                               :   0.512704E+03  Angstrom^3

  Fractional coordinates:
                         L1                L2                L3
       atom_frac         0.00001042        0.00001109       -0.00006141  Ti
       atom_frac         0.25000609        0.25000588        0.25002440  Ti
       atom_frac         0.15277473        0.15278038       -0.00001470  O
       atom_frac         0.34722235        0.34721380       -0.00001473  O
       atom_frac         0.09722691        0.40278923        0.25002243  O
       atom_frac         0.40278389        0.09721906        0.25002244  O
       atom_frac         0.00001042        0.00001109        0.49993931  Ti
       atom_frac         0.25000663        0.25000510        0.75002440  Ti
       atom_frac         0.15277470        0.15278039        0.49998928  O
       atom_frac         0.34722234        0.34721383        0.49998931  O
       atom_frac         0.09723020        0.40278554        0.75002244  O
       atom_frac         0.40277938        0.09722317        0.75002242  O
       atom_frac         0.00001086        0.50002681        0.00006322  Ti
       atom_frac         0.25001347        0.75001190        0.24997562  Ti
       atom_frac         0.15276750        0.65277937        0.00001467  O
       atom_frac         0.34722125        0.84721002        0.00001464  O
       atom_frac         0.09723729        0.90278836        0.24997758  O
       atom_frac         0.40278339        0.59722962        0.24997758  O
       atom_frac         0.00001087        0.50002681        0.50005885  Ti
       atom_frac         0.25001336        0.75001136        0.74997562  Ti
       atom_frac         0.15276750        0.65277936        0.50001078  O
       atom_frac         0.34722126        0.84721002        0.50001081  O
       atom_frac         0.09723256        0.90279194        0.74997759  O
       atom_frac         0.40278670        0.59722516        0.74997760  O
       atom_frac         0.50002657        0.00001063        0.00007883  Ti
       atom_frac         0.75001320        0.25001151        0.24997563  Ti
       atom_frac         0.65277432        0.15277314        0.00001464  O
       atom_frac         0.84721396        0.34721674        0.00001470  O
       atom_frac         0.59723558        0.40278585        0.24997759  O
       atom_frac         0.90278353        0.09723140        0.24997759  O
       atom_frac         0.50002657        0.00001063        0.50004326  Ti
       atom_frac         0.75001331        0.25001207        0.74997563  Ti
       atom_frac         0.65277431        0.15277314        0.50001083  O
       atom_frac         0.84721396        0.34721675        0.50001078  O
       atom_frac         0.59723228        0.40279032        0.74997761  O
       atom_frac         0.90278828        0.09722783        0.74997761  O
       atom_frac         0.50001506        0.50000689       -0.00005619  Ti
       atom_frac         0.75000672        0.75000519        0.25002435  Ti
       atom_frac         0.65277571        0.65277678       -0.00001476  O
       atom_frac         0.84722148        0.84721763       -0.00001475  O
       atom_frac         0.59722846        0.90278389        0.25002240  O
       atom_frac         0.90278138        0.59722504        0.25002238  O
       atom_frac         0.50001506        0.50000689        0.49993407  Ti
       atom_frac         0.75000616        0.75000596        0.75002435  Ti
       atom_frac         0.65277572        0.65277676        0.49998926  O
       atom_frac         0.84722151        0.84721763        0.49998925  O
       atom_frac         0.59723295        0.90277978        0.75002238  O
       atom_frac         0.90277807        0.59722873        0.75002239  O

  Slab Identifier: This seems to be a bulk system.
 
  Finished reading input file 'geometry.in'.
 

 
  Consistency checks for stacksize environment parameter are next.
 
  | Maximum stacksize for task 0: unlimited
  | Maximum stacksize for task 1: unlimited
  | Maximum stacksize for task 2: unlimited
  | Maximum stacksize for task 3: unlimited
  | Maximum stacksize for task 4: unlimited
  | Maximum stacksize for task 5: unlimited
  | Maximum stacksize for task 6: unlimited
  | Maximum stacksize for task 7: unlimited
  | Maximum stacksize for task 8: unlimited
  | Maximum stacksize for task 9: unlimited
  | Maximum stacksize for task 10: unlimited
  | Maximum stacksize for task 11: unlimited
  | Maximum stacksize for task 12: unlimited
  | Maximum stacksize for task 13: unlimited
  | Maximum stacksize for task 14: unlimited
  | Maximum stacksize for task 15: unlimited
  | Maximum stacksize for task 16: unlimited
  | Maximum stacksize for task 17: unlimited
  | Maximum stacksize for task 18: unlimited
  | Maximum stacksize for task 19: unlimited
  | Maximum stacksize for task 20: unlimited
  | Maximum stacksize for task 21: unlimited
  | Maximum stacksize for task 22: unlimited
  | Maximum stacksize for task 23: unlimited
  | Maximum stacksize for task 24: unlimited
  | Maximum stacksize for task 25: unlimited
  | Maximum stacksize for task 26: unlimited
  | Maximum stacksize for task 27: unlimited
  | Maximum stacksize for task 28: unlimited
  | Maximum stacksize for task 29: unlimited
  | Maximum stacksize for task 30: unlimited
  | Maximum stacksize for task 31: unlimited
  | Maximum stacksize for task 32: unlimited
  | Maximum stacksize for task 33: unlimited
  | Maximum stacksize for task 34: unlimited
  | Maximum stacksize for task 35: unlimited
  | Maximum stacksize for task 36: unlimited
  | Maximum stacksize for task 37: unlimited
  | Maximum stacksize for task 38: unlimited
  | Maximum stacksize for task 39: unlimited
  | Maximum stacksize for task 40: unlimited
  | Maximum stacksize for task 41: unlimited
  | Maximum stacksize for task 42: unlimited
  | Maximum stacksize for task 43: unlimited
  | Maximum stacksize for task 44: unlimited
  | Maximum stacksize for task 45: unlimited
  | Maximum stacksize for task 46: unlimited
  | Maximum stacksize for task 47: unlimited
  | Maximum stacksize for task 48: unlimited
  | Maximum stacksize for task 49: unlimited
  | Maximum stacksize for task 50: unlimited
  | Maximum stacksize for task 51: unlimited
  | Maximum stacksize for task 52: unlimited
  | Maximum stacksize for task 53: unlimited
  | Maximum stacksize for task 54: unlimited
  | Maximum stacksize for task 55: unlimited
  | Maximum stacksize for task 56: unlimited
  | Maximum stacksize for task 57: unlimited
  | Maximum stacksize for task 58: unlimited
  | Maximum stacksize for task 59: unlimited
  | Maximum stacksize for task 60: unlimited
  | Maximum stacksize for task 61: unlimited
  | Maximum stacksize for task 62: unlimited
  | Maximum stacksize for task 63: unlimited
  | Maximum stacksize for task 64: unlimited
  | Maximum stacksize for task 65: unlimited
  | Maximum stacksize for task 66: unlimited
  | Maximum stacksize for task 67: unlimited
  | Maximum stacksize for task 68: unlimited
  | Maximum stacksize for task 69: unlimited
  | Maximum stacksize for task 70: unlimited
  | Maximum stacksize for task 71: unlimited
  | Maximum stacksize for task 72: unlimited
  | Maximum stacksize for task 73: unlimited
  | Maximum stacksize for task 74: unlimited
  | Maximum stacksize for task 75: unlimited
  | Maximum stacksize for task 76: unlimited
  | Maximum stacksize for task 77: unlimited
  | Maximum stacksize for task 78: unlimited
  | Maximum stacksize for task 79: unlimited
  | Maximum stacksize for task 80: unlimited
  | Maximum stacksize for task 81: unlimited
  | Maximum stacksize for task 82: unlimited
  | Maximum stacksize for task 83: unlimited
  | Maximum stacksize for task 84: unlimited
  | Maximum stacksize for task 85: unlimited
  | Maximum stacksize for task 86: unlimited
  | Maximum stacksize for task 87: unlimited
  | Maximum stacksize for task 88: unlimited
  | Maximum stacksize for task 89: unlimited
  | Maximum stacksize for task 90: unlimited
  | Maximum stacksize for task 91: unlimited
  | Maximum stacksize for task 92: unlimited
  | Maximum stacksize for task 93: unlimited
  | Maximum stacksize for task 94: unlimited
  | Maximum stacksize for task 95: unlimited
  | Maximum stacksize for task 96: unlimited
  | Maximum stacksize for task 97: unlimited
  | Maximum stacksize for task 98: unlimited
  | Maximum stacksize for task 99: unlimited
  | Maximum stacksize for task 100: unlimited
  | Maximum stacksize for task 101: unlimited
  | Maximum stacksize for task 102: unlimited
  | Maximum stacksize for task 103: unlimited
  | Maximum stacksize for task 104: unlimited
  | Maximum stacksize for task 105: unlimited
  | Maximum stacksize for task 106: unlimited
  | Maximum stacksize for task 107: unlimited
  | Maximum stacksize for task 108: unlimited
  | Maximum stacksize for task 109: unlimited
  | Maximum stacksize for task 110: unlimited
  | Maximum stacksize for task 111: unlimited
  | Maximum stacksize for task 112: unlimited
  | Maximum stacksize for task 113: unlimited
  | Maximum stacksize for task 114: unlimited
  | Maximum stacksize for task 115: unlimited
  | Maximum stacksize for task 116: unlimited
  | Maximum stacksize for task 117: unlimited
  | Maximum stacksize for task 118: unlimited
  | Maximum stacksize for task 119: unlimited
  | Maximum stacksize for task 120: unlimited
  | Maximum stacksize for task 121: unlimited
  | Maximum stacksize for task 122: unlimited
  | Maximum stacksize for task 123: unlimited
  | Maximum stacksize for task 124: unlimited
  | Maximum stacksize for task 125: unlimited
  | Maximum stacksize for task 126: unlimited
  | Maximum stacksize for task 127: unlimited
  | Current stacksize for task 0: unlimited
  | Current stacksize for task 1: unlimited
  | Current stacksize for task 2: unlimited
  | Current stacksize for task 3: unlimited
  | Current stacksize for task 4: unlimited
  | Current stacksize for task 5: unlimited
  | Current stacksize for task 6: unlimited
  | Current stacksize for task 7: unlimited
  | Current stacksize for task 8: unlimited
  | Current stacksize for task 9: unlimited
  | Current stacksize for task 10: unlimited
  | Current stacksize for task 11: unlimited
  | Current stacksize for task 12: unlimited
  | Current stacksize for task 13: unlimited
  | Current stacksize for task 14: unlimited
  | Current stacksize for task 15: unlimited
  | Current stacksize for task 16: unlimited
  | Current stacksize for task 17: unlimited
  | Current stacksize for task 18: unlimited
  | Current stacksize for task 19: unlimited
  | Current stacksize for task 20: unlimited
  | Current stacksize for task 21: unlimited
  | Current stacksize for task 22: unlimited
  | Current stacksize for task 23: unlimited
  | Current stacksize for task 24: unlimited
  | Current stacksize for task 25: unlimited
  | Current stacksize for task 26: unlimited
  | Current stacksize for task 27: unlimited
  | Current stacksize for task 28: unlimited
  | Current stacksize for task 29: unlimited
  | Current stacksize for task 30: unlimited
  | Current stacksize for task 31: unlimited
  | Current stacksize for task 32: unlimited
  | Current stacksize for task 33: unlimited
  | Current stacksize for task 34: unlimited
  | Current stacksize for task 35: unlimited
  | Current stacksize for task 36: unlimited
  | Current stacksize for task 37: unlimited
  | Current stacksize for task 38: unlimited
  | Current stacksize for task 39: unlimited
  | Current stacksize for task 40: unlimited
  | Current stacksize for task 41: unlimited
  | Current stacksize for task 42: unlimited
  | Current stacksize for task 43: unlimited
  | Current stacksize for task 44: unlimited
  | Current stacksize for task 45: unlimited
  | Current stacksize for task 46: unlimited
  | Current stacksize for task 47: unlimited
  | Current stacksize for task 48: unlimited
  | Current stacksize for task 49: unlimited
  | Current stacksize for task 50: unlimited
  | Current stacksize for task 51: unlimited
  | Current stacksize for task 52: unlimited
  | Current stacksize for task 53: unlimited
  | Current stacksize for task 54: unlimited
  | Current stacksize for task 55: unlimited
  | Current stacksize for task 56: unlimited
  | Current stacksize for task 57: unlimited
  | Current stacksize for task 58: unlimited
  | Current stacksize for task 59: unlimited
  | Current stacksize for task 60: unlimited
  | Current stacksize for task 61: unlimited
  | Current stacksize for task 62: unlimited
  | Current stacksize for task 63: unlimited
  | Current stacksize for task 64: unlimited
  | Current stacksize for task 65: unlimited
  | Current stacksize for task 66: unlimited
  | Current stacksize for task 67: unlimited
  | Current stacksize for task 68: unlimited
  | Current stacksize for task 69: unlimited
  | Current stacksize for task 70: unlimited
  | Current stacksize for task 71: unlimited
  | Current stacksize for task 72: unlimited
  | Current stacksize for task 73: unlimited
  | Current stacksize for task 74: unlimited
  | Current stacksize for task 75: unlimited
  | Current stacksize for task 76: unlimited
  | Current stacksize for task 77: unlimited
  | Current stacksize for task 78: unlimited
  | Current stacksize for task 79: unlimited
  | Current stacksize for task 80: unlimited
  | Current stacksize for task 81: unlimited
  | Current stacksize for task 82: unlimited
  | Current stacksize for task 83: unlimited
  | Current stacksize for task 84: unlimited
  | Current stacksize for task 85: unlimited
  | Current stacksize for task 86: unlimited
  | Current stacksize for task 87: unlimited
  | Current stacksize for task 88: unlimited
  | Current stacksize for task 89: unlimited
  | Current stacksize for task 90: unlimited
  | Current stacksize for task 91: unlimited
  | Current stacksize for task 92: unlimited
  | Current stacksize for task 93: unlimited
  | Current stacksize for task 94: unlimited
  | Current stacksize for task 95: unlimited
  | Current stacksize for task 96: unlimited
  | Current stacksize for task 97: unlimited
  | Current stacksize for task 98: unlimited
  | Current stacksize for task 99: unlimited
  | Current stacksize for task 100: unlimited
  | Current stacksize for task 101: unlimited
  | Current stacksize for task 102: unlimited
  | Current stacksize for task 103: unlimited
  | Current stacksize for task 104: unlimited
  | Current stacksize for task 105: unlimited
  | Current stacksize for task 106: unlimited
  | Current stacksize for task 107: unlimited
  | Current stacksize for task 108: unlimited
  | Current stacksize for task 109: unlimited
  | Current stacksize for task 110: unlimited
  | Current stacksize for task 111: unlimited
  | Current stacksize for task 112: unlimited
  | Current stacksize for task 113: unlimited
  | Current stacksize for task 114: unlimited
  | Current stacksize for task 115: unlimited
  | Current stacksize for task 116: unlimited
  | Current stacksize for task 117: unlimited
  | Current stacksize for task 118: unlimited
  | Current stacksize for task 119: unlimited
  | Current stacksize for task 120: unlimited
  | Current stacksize for task 121: unlimited
  | Current stacksize for task 122: unlimited
  | Current stacksize for task 123: unlimited
  | Current stacksize for task 124: unlimited
  | Current stacksize for task 125: unlimited
  | Current stacksize for task 126: unlimited
  | Current stacksize for task 127: unlimited
 
  Consistency checks for the contents of control.in are next.
 
  MPI_IN_PLACE appears to work with this MPI implementation.
  | Keeping use_mpi_in_place .true. (see manual).
  Target number of points in a grid batch is not set. Defaulting to  100
  Method for grid partitioning is not set. Defaulting to parallel hash+maxmin partitioning.
  Batch size limit is not set. Defaulting to    200
  By default, will store active basis functions for each batch.
  If in need of memory, prune_basis_once .false. can be used to disable this option.
  communication_type for Hartree potential was not specified.
  Defaulting to calc_hartree .
  Defaulting to Pulay charge density mixer.
  Pulay mixer: Number of relevant iterations not set.
  Defaulting to    8 iterations.
  Pulay mixer: Number of initial linear mixing iterations not set.
  Defaulting to    0 iterations.
  Work space size for distributed Hartree potential not set.
  Defaulting to   0.200000E+03 MB.
  Mixing parameter for charge density mixing has not been set.
  Using default: charge_mix_param =     0.0500.
  The mixing parameter will be adjusted in iteration number     2 of each s.c.f. cycle (i.e., each geometry step).
  Algorithm-dependent basis array size parameters:
  | n_max_pulay                         :        8
  Maximum number of self-consistency iterations not provided.
  Presetting  1000 iterations.
  Presetting      1001 iterations before the initial mixing cycle
  is restarted anyway using the sc_init_iter criterion / keyword.
  Presetting a factor      1.000 between actual scf density residual
  and density convergence criterion sc_accuracy_rho below which sc_init_iter
  takes no effect.
 * No s.c.f. convergence criteria (sc_accuracy_*) were provided in control.in.
 * The run will proceed with a reasonable default guess, but please check whether.
 * the s.c.f. cycles seem to take too much or too little time.
  Calculation of forces was not defined in control.in. No forces will be calculated.
  Geometry relaxation not requested: no relaxation will be performed.
 * Notice: The s.c.f. convergence criterion sc_accuracy_rho was not provided.
 * We used to stop in this case, and ask the user to provide reasonable
 * scf convergence criteria. However, this led some users to employ criteria
 * that led to extremely long run times, e.g., for simple relaxation.
 * We now preset a default value for sc_accuracy_rho if it is not set.
 * You may still wish to check if this setting is too tight or too loose for your needs.
 * Based on n_atoms and forces and force-correction status, FHI-aims chose sc_accuracy_rho =  0.282843E-05 .
  No accuracy limit for integral partition fn. given. Defaulting to  0.1000E-14.
  No threshold value for u(r) in integrations given. Defaulting to  0.1000E-05.
  No occupation type (smearing scheme) given. Defaulting to Gaussian broadening, width =  0.1000E-01 eV.
  The width will be adjusted in iteration number     2 of each s.c.f. cycle (i.e., each geometry step).
  No accuracy for occupation numbers given. Defaulting to  0.1000E-12.
  No threshold value for occupation numbers given. Defaulting to  0.0000E+00.
  No accuracy for fermi level given. Defaulting to  0.1000E-19.
  Maximum # of iterations to find E_F not set. Defaulting to  200.
  Preferred method for the eigenvalue solver ('KS_method') not specified in 'control.in'.
  Defaulting to serial version, LAPACK (via ELSI), since more k-points than CPUs available.
  Will not use alltoall communication since running on < 1024 CPUs.
  Threshold for basis singularities not set.
  Default threshold for basis singularities:  0.1000E-04
  partition_type (choice of integration weights) for integrals was not specified.
  | Using a version of the partition function of Stratmann and coworkers ('stratmann_sparse').
  | At each grid point, the set of atoms used to build the partition table is smoothly restricted to
  | only those atoms whose free-atom density would be non-zero at that grid point.
  Partitioning for Hartree potential was not defined. Using partition_type for integrals.
  | Adjusted default value of keyword multip_moments_threshold to:       0.10000000E-11
  | This value may affect high angular momentum components of the Hartree potential in periodic systems.
  Spin handling was not defined in control.in. Defaulting to unpolarized case.
  No q(lm)/r^(l+1) cutoff set for long-range Hartree potential.
  | Using default value of  0.100000E-09 .
  | Verify using the multipole_threshold keyword.
  Defaulting to new monopole extrapolation.
  Density update method: automatic selection selected.
  Using density matrix based charge density update.
  Using density matrix based charge density update.
  Using packed matrix style: index .
  Defaulting to use time-reversal symmetry for k-point grid.
  Charge integration errors on the 3D integration grid will be compensated
  by explicit normalization and distribution of residual charges.
  Use the "compensate_multipole_errors" flag to change this behaviour.
  Set 'collect_eigenvectors' to be '.true.' for all serial calculations. This is mandatory.
  Set 'collect_eigenvectors' to be '.true.' for KS_method lapack_fast and serial.
  Found potential conflicts with setting 'use_local_index' for this calculation. Will not set it.
 
  Consistency checks for the contents of geometry.in are next.
 

  Range separation radius for Ewald summation (hartree_convergence_parameter):      3.05694433 bohr.
  Number of empty states per atom not set in control.in - providing a guess from actual geometry.
  | Total number of empty states used during s.c.f. cycle:      184
  If you use a very high smearing, use empty_states (per atom!) in control.in to increase this value.

  Structure-dependent array size parameters: 
  | Maximum number of distinct radial functions  :       17
  | Maximum number of basis functions            :      944
  | Number of Kohn-Sham states (occupied + empty):      488
------------------------------------------------------------
  After read_input_data [GB]:    926.12

  Performing system and environment tests:
  *** Environment variable OMP_NUM_THREADS is not set
  *** For performance reasons you might want to set it to 1
  | Checking for ScaLAPACK...
  | Testing pdtran()...
  | All pdtran() tests passed.
  After prepare_system [GB]:    925.64

------------------------------------------------------------
          Preparing all fixed parts of the calculation.
------------------------------------------------------------
  Determining machine precision:
    2.225073858507201E-308
  Setting up grids for atomic and cluster calculations.

  Creating wave function, potential, and density for free atoms.
  Runtime choices for atomic solver:
  | atomic solver xc        : PBE
  | compute density gradient: 1
  | compute kinetic density : F

  Species: Ti

  List of occupied orbitals and eigenvalues:
    n    l              occ      energy [Ha]    energy [eV]
    1    0           2.0000      -179.959082     -4896.9358
    2    0           2.0000       -19.727662      -536.8170
    3    0           2.0000        -2.283029       -62.1244
    4    0           2.0000        -0.148384        -4.0377
    2    1           6.0000       -16.317278      -444.0157
    3    1           6.0000        -1.409348       -38.3503
    3    2           2.0000        -0.139340        -3.7916


  Species: O

  List of occupied orbitals and eigenvalues:
    n    l              occ      energy [Ha]    energy [eV]
    1    0           2.0000       -18.926989      -515.0296
    2    0           2.0000        -0.880247       -23.9527
    2    1           4.0000        -0.331514        -9.0210


  Adding cutoff potential to free-atom effective potential.
  Creating fixed part of basis set: Ionic, confined, hydrogenic.
 
  Ti                   ion:

  List of free ionic orbitals and eigenvalues:
    n    l      energy [Ha]    energy [eV]
    1    0      -180.819616     -4920.3521
    2    0       -20.608761      -560.7929
    3    0        -3.115729       -84.7833
    4    0        -0.697188       -18.9715
    2    1       -17.196209      -467.9327
    3    1        -2.231296       -60.7167
    3    2        -0.911363       -24.7995


  List of ionic basis orbitals and eigenvalues:
    n    l      energy [Ha]    energy [eV]    outer radius [A]
    4    1        -0.517739       -14.0884       4.592117
    4    0        -0.696824       -18.9615       4.536321

 
  Ti                   hydrogenic:
 
  List of hydrogenic basis orbitals: 
    n    l      effective z      eigenvalue [eV]  inner max. [A]     outer max. [A]     outer radius [A]   
    4    3         8.000000       -54.4222           1.059019           1.059019           4.267343
    3    2         2.700000       -10.7798           1.726925           1.726925           4.592117
 
 
  O                    hydrogenic:
 
  List of hydrogenic basis orbitals: 
    n    l      effective z      eigenvalue [eV]  inner max. [A]     outer max. [A]     outer radius [A]   
    2    1         1.800000       -10.9749           1.164242           1.164242           4.578029
    3    2         7.600000       -87.3180           0.624125           0.624125           3.251020
    3    0         6.400000       -61.9207           0.061167           1.081902           4.001998
 
  Creating atomic-like basis functions for current effective potential.

  Species Ti                  :

  List of atomic basis orbitals and eigenvalues:
    n    l      energy [Ha]    energy [eV]    outer radius [A]
    1    0      -179.959082     -4896.9358       0.490254
    2    0       -19.727662      -536.8170       1.491292
    3    0        -2.283029       -62.1244       4.014314
    4    0        -0.148384        -4.0377       4.592117
    2    1       -16.317278      -444.0157       1.585290
    3    1        -1.409348       -38.3503       4.267343
    3    2        -0.139340        -3.7916       4.536321


  Species O                   :

  List of atomic basis orbitals and eigenvalues:
    n    l      energy [Ha]    energy [eV]    outer radius [A]
    1    0       -18.926989      -515.0296       1.415765
    2    0        -0.880247       -23.9527       4.413171
    2    1        -0.331514        -9.0210       4.522403

  Assembling full basis from fixed parts.
  | Species Ti :   atomic orbital   1 s accepted.
  | Species Ti :   atomic orbital   2 s accepted.
  | Species Ti :   atomic orbital   3 s accepted.
  | Species Ti :    ionic orbital   4 s accepted.
  | Species Ti :   atomic orbital   4 s accepted.
  | Species Ti :   atomic orbital   2 p accepted.
  | Species Ti :   atomic orbital   3 p accepted.
  | Species Ti :    ionic orbital   4 p accepted.
  | Species Ti :   atomic orbital   3 d accepted.
  | Species Ti :    hydro orbital   3 d accepted.
  | Species Ti :    hydro orbital   4 f accepted.
  | Species O :   atomic orbital   1 s accepted.
  | Species O :    hydro orbital   3 s accepted.
  | Species O :   atomic orbital   2 s accepted.
  | Species O :   atomic orbital   2 p accepted.
  | Species O :    hydro orbital   2 p accepted.
  | Species O :    hydro orbital   3 d accepted.
 
  Basis size parameters after reduction:
  | Total number of radial functions:       17
  | Total number of basis functions :      944
 
  Per-task memory consumption for arrays in subroutine allocate_ext:
  |           6.042440MB.
  Testing on-site integration grid accuracy.
  |  Species  Function  <phi|h_atom|phi> (log., in eV)  <phi|h_atom|phi> (rad., in eV)
           1        1              -4896.9357674450              -4896.9322830202
           1        2               -536.8170048508               -536.8169722333
           1        3                -62.1243896260                -62.1243889283
           1        4                 -3.2653235630                 -3.2692838808
           1        5                  6.7987747276                  6.5460721883 ***
           1        6               -444.0157161949               -444.0157165810
           1        7                -38.3503235548                -38.3503234963
           1        8                  0.2923930877                  0.2745948116
           1        9                 -3.7933400649                 -3.7959244177
           1       10                  6.3288803616                  6.2510614929 ***
           1       11                 27.8451455747                 27.8452636416
           2       12               -515.0295626295               -515.0294562738
           2       13                 15.1698434419                 15.1699322204
           2       14                -21.6038822678                -21.6039118105
           2       15                 -9.0211123393                 -9.0212703513
           2       16                  8.3047696391                  8.2854840999
           2       17                 45.8428042125                 45.8427461222
 * Note: Onsite integrals marked "***" above are less accurate than
 * onsite_accuracy_threshold =    0.03000 eV. Usually, this is harmless.
 * When in doubt, tighten the "radial" and/or "radial_multiplier" flags to check.

  Preparing densities etc. for the partition functions (integrals / Hartree potential).

  Preparations completed.
  max(cpu_time)          :      0.368 s.
  Wall clock time (cpu1) :      0.363 s.
------------------------------------------------------------
  After prepare_scf [GB]:    918.81

  Initializing index lists of integration centers etc. from given atomic structure:
  Mapping all atomic coordinates to central unit cell.

  Initializing the k-points
  Using symmetry for reducing the k-points
  | k-points reduced from:      768 to      388
  | Number of k-points                             :       388
  The eigenvectors in the calculations are COMPLEX.
  | K-points in task   0:         3
  | K-points in task   1:         4
  | K-points in task   2:         4
  | K-points in task   3:         4
  | K-points in task   4:         4
  | K-points in task   5:         3
  | K-points in task   6:         3
  | K-points in task   7:         3
  | K-points in task   8:         3
  | K-points in task   9:         3
  | K-points in task  10:         3
  | K-points in task  11:         3
  | K-points in task  12:         3
  | K-points in task  13:         3
  | K-points in task  14:         3
  | K-points in task  15:         3
  | K-points in task  16:         3
  | K-points in task  17:         3
  | K-points in task  18:         3
  | K-points in task  19:         3
  | K-points in task  20:         3
  | K-points in task  21:         3
  | K-points in task  22:         3
  | K-points in task  23:         3
  | K-points in task  24:         3
  | K-points in task  25:         3
  | K-points in task  26:         3
  | K-points in task  27:         3
  | K-points in task  28:         3
  | K-points in task  29:         3
  | K-points in task  30:         3
  | K-points in task  31:         3
  | K-points in task  32:         3
  | K-points in task  33:         3
  | K-points in task  34:         3
  | K-points in task  35:         3
  | K-points in task  36:         3
  | K-points in task  37:         3
  | K-points in task  38:         3
  | K-points in task  39:         3
  | K-points in task  40:         3
  | K-points in task  41:         3
  | K-points in task  42:         3
  | K-points in task  43:         3
  | K-points in task  44:         3
  | K-points in task  45:         3
  | K-points in task  46:         3
  | K-points in task  47:         3
  | K-points in task  48:         3
  | K-points in task  49:         3
  | K-points in task  50:         3
  | K-points in task  51:         3
  | K-points in task  52:         3
  | K-points in task  53:         3
  | K-points in task  54:         3
  | K-points in task  55:         3
  | K-points in task  56:         3
  | K-points in task  57:         3
  | K-points in task  58:         3
  | K-points in task  59:         3
  | K-points in task  60:         3
  | K-points in task  61:         3
  | K-points in task  62:         3
  | K-points in task  63:         3
  | K-points in task  64:         3
  | K-points in task  65:         3
  | K-points in task  66:         3
  | K-points in task  67:         3
  | K-points in task  68:         3
  | K-points in task  69:         3
  | K-points in task  70:         3
  | K-points in task  71:         3
  | K-points in task  72:         3
  | K-points in task  73:         3
  | K-points in task  74:         3
  | K-points in task  75:         3
  | K-points in task  76:         3
  | K-points in task  77:         3
  | K-points in task  78:         3
  | K-points in task  79:         3
  | K-points in task  80:         3
  | K-points in task  81:         3
  | K-points in task  82:         3
  | K-points in task  83:         3
  | K-points in task  84:         3
  | K-points in task  85:         3
  | K-points in task  86:         3
  | K-points in task  87:         3
  | K-points in task  88:         3
  | K-points in task  89:         3
  | K-points in task  90:         3
  | K-points in task  91:         3
  | K-points in task  92:         3
  | K-points in task  93:         3
  | K-points in task  94:         3
  | K-points in task  95:         3
  | K-points in task  96:         3
  | K-points in task  97:         3
  | K-points in task  98:         3
  | K-points in task  99:         3
  | K-points in task 100:         3
  | K-points in task 101:         3
  | K-points in task 102:         3
  | K-points in task 103:         3
  | K-points in task 104:         3
  | K-points in task 105:         3
  | K-points in task 106:         3
  | K-points in task 107:         3
  | K-points in task 108:         3
  | K-points in task 109:         3
  | K-points in task 110:         3
  | K-points in task 111:         3
  | K-points in task 112:         3
  | K-points in task 113:         3
  | K-points in task 114:         3
  | K-points in task 115:         3
  | K-points in task 116:         3
  | K-points in task 117:         3
  | K-points in task 118:         3
  | K-points in task 119:         3
  | K-points in task 120:         3
  | K-points in task 121:         3
  | K-points in task 122:         3
  | K-points in task 123:         3
  | K-points in task 124:         3
  | K-points in task 125:         3
  | K-points in task 126:         3
  | K-points in task 127:         3
  | Number of basis functions in the Hamiltonian integrals :      7297
  | Number of basis functions in a single unit cell        :       944
  | Number of centers in hartree potential         :      2123
  | Number of centers in hartree multipole         :      1437
  | Number of centers in electron density summation:      1109
  | Number of centers in basis integrals           :      1188
  | Number of centers in integrals                 :       481
  | Number of centers in hamiltonian               :      1109
  | Consuming        278 KiB for k_phase.
  | Number of super-cells (origin) [n_cells]                     :         175
  | Number of super-cells (after PM_index) [n_cells]             :          46
  | Number of super-cells in hamiltonian [n_cells_in_hamiltonian]:          46
  | Size of matrix packed + index [n_hamiltonian_matrix_size] :     2120993
  After initialize_bc_dependent_lists [GB]:    918.83

------------------------------------------------------------
          Begin self-consistency loop: Initialization.

          Date     :  20240925, Time     :  145756.967
------------------------------------------------------------
  Available memory per node after initialize_hartree_non_periodic_ewald [GB]:    918.83
  | Estimated reciprocal-space cutoff momentum G_max:         3.08892848 bohr^-1 .
  | Reciprocal lattice points for long-range Hartree potential:    1722
  Available memory per node after initialize_recip_hartree_potential [GB]:    918.83
  Available memory per node after initialize_scalapack [GB]:    918.83
  Available memory per node after aims_elsi_init_scf [GB]:    918.83
  Available memory per node after initialize_fixed_grids [GB]:    918.83
  Partitioning the integration grid into batches with parallel hashing+maxmin method.
  | Number of batches:     4084
  | Maximal batch size:     119
  | Minimal batch size:      56
  | Average batch size:      75.079
  | Standard deviation of batch sizes:      12.191

  Integration load balanced across   128 MPI tasks.
  Work distribution over tasks is as follows:
  Task     0 has       2411 integration points.
  Task     1 has       2383 integration points.
  Task     2 has       2379 integration points.
  Task     3 has       2427 integration points.
  Task     4 has       2360 integration points.
  Task     5 has       2382 integration points.
  Task     6 has       2415 integration points.
  Task     7 has       2362 integration points.
  Task     8 has       2376 integration points.
  Task     9 has       2360 integration points.
  Task    10 has       2362 integration points.
  Task    11 has       2384 integration points.
  Task    12 has       2381 integration points.
  Task    13 has       2364 integration points.
  Task    14 has       2423 integration points.
  Task    15 has       2425 integration points.
  Task    16 has       2408 integration points.
  Task    17 has       2381 integration points.
  Task    18 has       2430 integration points.
  Task    19 has       2410 integration points.
  Task    20 has       2381 integration points.
  Task    21 has       2378 integration points.
  Task    22 has       2404 integration points.
  Task    23 has       2413 integration points.
  Task    24 has       2403 integration points.
  Task    25 has       2380 integration points.
  Task    26 has       2409 integration points.
  Task    27 has       2411 integration points.
  Task    28 has       2383 integration points.
  Task    29 has       2384 integration points.
  Task    30 has       2367 integration points.
  Task    31 has       2429 integration points.
  Task    32 has       2365 integration points.
  Task    33 has       2381 integration points.
  Task    34 has       2361 integration points.
  Task    35 has       2380 integration points.
  Task    36 has       2432 integration points.
  Task    37 has       2408 integration points.
  Task    38 has       2422 integration points.
  Task    39 has       2360 integration points.
  Task    40 has       2361 integration points.
  Task    41 has       2379 integration points.
  Task    42 has       2434 integration points.
  Task    43 has       2428 integration points.
  Task    44 has       2411 integration points.
  Task    45 has       2406 integration points.
  Task    46 has       2432 integration points.
  Task    47 has       2409 integration points.
  Task    48 has       2363 integration points.
  Task    49 has       2383 integration points.
  Task    50 has       2362 integration points.
  Task    51 has       2427 integration points.
  Task    52 has       2429 integration points.
  Task    53 has       2379 integration points.
  Task    54 has       2406 integration points.
  Task    55 has       2385 integration points.
  Task    56 has       2425 integration points.
  Task    57 has       2406 integration points.
  Task    58 has       2404 integration points.
  Task    59 has       2379 integration points.
  Task    60 has       2365 integration points.
  Task    61 has       2437 integration points.
  Task    62 has       2404 integration points.
  Task    63 has       2435 integration points.
  Task    64 has       2409 integration points.
  Task    65 has       2381 integration points.
  Task    66 has       2382 integration points.
  Task    67 has       2363 integration points.
  Task    68 has       2419 integration points.
  Task    69 has       2378 integration points.
  Task    70 has       2370 integration points.
  Task    71 has       2426 integration points.
  Task    72 has       2358 integration points.
  Task    73 has       2411 integration points.
  Task    74 has       2361 integration points.
  Task    75 has       2421 integration points.
  Task    76 has       2380 integration points.
  Task    77 has       2359 integration points.
  Task    78 has       2407 integration points.
  Task    79 has       2432 integration points.
  Task    80 has       2430 integration points.
  Task    81 has       2430 integration points.
  Task    82 has       2425 integration points.
  Task    83 has       2430 integration points.
  Task    84 has       2365 integration points.
  Task    85 has       2427 integration points.
  Task    86 has       2413 integration points.
  Task    87 has       2429 integration points.
  Task    88 has       2406 integration points.
  Task    89 has       2434 integration points.
  Task    90 has       2382 integration points.
  Task    91 has       2364 integration points.
  Task    92 has       2380 integration points.
  Task    93 has       2378 integration points.
  Task    94 has       2432 integration points.
  Task    95 has       2381 integration points.
  Task    96 has       2361 integration points.
  Task    97 has       2399 integration points.
  Task    98 has       2379 integration points.
  Task    99 has       2402 integration points.
  Task   100 has       2364 integration points.
  Task   101 has       2407 integration points.
  Task   102 has       2405 integration points.
  Task   103 has       2422 integration points.
  Task   104 has       2358 integration points.
  Task   105 has       2381 integration points.
  Task   106 has       2429 integration points.
  Task   107 has       2384 integration points.
  Task   108 has       2381 integration points.
  Task   109 has       2411 integration points.
  Task   110 has       2431 integration points.
  Task   111 has       2430 integration points.
  Task   112 has       2408 integration points.
  Task   113 has       2405 integration points.
  Task   114 has       2410 integration points.
  Task   115 has       2359 integration points.
  Task   116 has       2382 integration points.
  Task   117 has       2379 integration points.
  Task   118 has       2361 integration points.
  Task   119 has       2359 integration points.
  Task   120 has       2406 integration points.
  Task   121 has       2431 integration points.
  Task   122 has       2362 integration points.
  Task   123 has       2407 integration points.
  Task   124 has       2367 integration points.
  Task   125 has       2364 integration points.
  Task   126 has       2361 integration points.
  Task   127 has       2433 integration points.
  Available memory per node after partition_grid [GB]:    918.87
  Initializing partition tables, free-atom densities, potentials, etc. across the integration grid (initialize_grid_storage).
  | initialize_grid_storage: Actual outermost partition radius vs. multipole_radius_free
  | (-- VB: in principle, multipole_radius_free should be larger, hence this output)
  | Species        1: Confinement radius =              4.999999999999999 AA, multipole_radius_free =              5.002391649902235 AA.
  | Species        1: outer_partition_radius set to              5.002391649902235 AA .
  | Species        2: Confinement radius =              4.999999999999999 AA, multipole_radius_free =              5.048384829883283 AA.
  | Species        2: outer_partition_radius set to              5.048384829883283 AA .
  | The sparse table of interatomic distances needs       3496.88 kbyte instead of     11290.75 kbyte of memory.
  | Net number of integration points:   306624
  | of which are non-zero points    :   252128
  | Numerical average free-atom electrostatic potential    :    -17.70584580 eV
  Available memory per node after initialize_grid_storage_p1 [GB]:    918.78
  Renormalizing the initial density to the exact electron count on the 3D integration grid.
  | Initial density: Formal number of electrons (from input files) :     608.0000000000
  | Integrated number of electrons on 3D grid     :     608.0048962447
  | Charge integration error                      :       0.0048962447
  | Normalization factor for density and gradient :       0.9999919470
  Renormalizing the free-atom superposition density to the exact electron count on the 3D integration grid.
  | Formal number of electrons (from input files) :     608.0000000000
  | Integrated number of electrons on 3D grid     :     608.0048962447
  | Charge integration error                      :       0.0048962447
  | Normalization factor for density and gradient :       0.9999919470
  Obtaining max. number of non-zero basis functions in each batch (get_n_compute_maxes).
  | Maximal number of non-zero basis functions:      781 in task     0
  | Maximal number of non-zero basis functions:      855 in task     1
  | Maximal number of non-zero basis functions:      802 in task     2
  | Maximal number of non-zero basis functions:      794 in task     3
  | Maximal number of non-zero basis functions:      766 in task     4
  | Maximal number of non-zero basis functions:      831 in task     5
  | Maximal number of non-zero basis functions:      796 in task     6
  | Maximal number of non-zero basis functions:      815 in task     7
  | Maximal number of non-zero basis functions:      783 in task     8
  | Maximal number of non-zero basis functions:      814 in task     9
  | Maximal number of non-zero basis functions:      834 in task    10
  | Maximal number of non-zero basis functions:      856 in task    11
  | Maximal number of non-zero basis functions:      835 in task    12
  | Maximal number of non-zero basis functions:      834 in task    13
  | Maximal number of non-zero basis functions:      809 in task    14
  | Maximal number of non-zero basis functions:      855 in task    15
  | Maximal number of non-zero basis functions:      834 in task    16
  | Maximal number of non-zero basis functions:      855 in task    17
  | Maximal number of non-zero basis functions:      801 in task    18
  | Maximal number of non-zero basis functions:      796 in task    19
  | Maximal number of non-zero basis functions:      796 in task    20
  | Maximal number of non-zero basis functions:      840 in task    21
  | Maximal number of non-zero basis functions:      813 in task    22
  | Maximal number of non-zero basis functions:      837 in task    23
  | Maximal number of non-zero basis functions:      801 in task    24
  | Maximal number of non-zero basis functions:      818 in task    25
  | Maximal number of non-zero basis functions:      839 in task    26
  | Maximal number of non-zero basis functions:      813 in task    27
  | Maximal number of non-zero basis functions:      806 in task    28
  | Maximal number of non-zero basis functions:      840 in task    29
  | Maximal number of non-zero basis functions:      825 in task    30
  | Maximal number of non-zero basis functions:      792 in task    31
  | Maximal number of non-zero basis functions:      815 in task    32
  | Maximal number of non-zero basis functions:      856 in task    33
  | Maximal number of non-zero basis functions:      834 in task    34
  | Maximal number of non-zero basis functions:      834 in task    35
  | Maximal number of non-zero basis functions:      815 in task    36
  | Maximal number of non-zero basis functions:      831 in task    37
  | Maximal number of non-zero basis functions:      831 in task    38
  | Maximal number of non-zero basis functions:      815 in task    39
  | Maximal number of non-zero basis functions:      822 in task    40
  | Maximal number of non-zero basis functions:      854 in task    41
  | Maximal number of non-zero basis functions:      855 in task    42
  | Maximal number of non-zero basis functions:      793 in task    43
  | Maximal number of non-zero basis functions:      854 in task    44
  | Maximal number of non-zero basis functions:      797 in task    45
  | Maximal number of non-zero basis functions:      834 in task    46
  | Maximal number of non-zero basis functions:      808 in task    47
  | Maximal number of non-zero basis functions:      821 in task    48
  | Maximal number of non-zero basis functions:      818 in task    49
  | Maximal number of non-zero basis functions:      835 in task    50
  | Maximal number of non-zero basis functions:      856 in task    51
  | Maximal number of non-zero basis functions:      775 in task    52
  | Maximal number of non-zero basis functions:      839 in task    53
  | Maximal number of non-zero basis functions:      820 in task    54
  | Maximal number of non-zero basis functions:      799 in task    55
  | Maximal number of non-zero basis functions:      811 in task    56
  | Maximal number of non-zero basis functions:      837 in task    57
  | Maximal number of non-zero basis functions:      840 in task    58
  | Maximal number of non-zero basis functions:      831 in task    59
  | Maximal number of non-zero basis functions:      815 in task    60
  | Maximal number of non-zero basis functions:      832 in task    61
  | Maximal number of non-zero basis functions:      809 in task    62
  | Maximal number of non-zero basis functions:      796 in task    63
  | Maximal number of non-zero basis functions:      814 in task    64
  | Maximal number of non-zero basis functions:      814 in task    65
  | Maximal number of non-zero basis functions:      840 in task    66
[...]
    427       0.00000           0.311202            8.46824
    428       0.00000           0.323700            8.80833
    429       0.00000           0.328148            8.92936
    430       0.00000           0.328150            8.92942
    431       0.00000           0.328158            8.92963
    432       0.00000           0.328160            8.92970
    433       0.00000           0.333055            9.06289
    434       0.00000           0.333057            9.06293
    435       0.00000           0.333064            9.06312
    436       0.00000           0.333065            9.06317
    437       0.00000           0.342902            9.33085
    438       0.00000           0.342909            9.33102
    439       0.00000           0.343872            9.35723
    440       0.00000           0.355175            9.66479
    441       0.00000           0.355184            9.66506
    442       0.00000           0.362018            9.85102
    443       0.00000           0.362023            9.85114
    444       0.00000           0.362025            9.85121
    445       0.00000           0.362030            9.85134
    446       0.00000           0.362162            9.85492
    447       0.00000           0.362172            9.85519
    448       0.00000           0.371462           10.10800
    449       0.00000           0.371471           10.10824
    450       0.00000           0.371510           10.10931
    451       0.00000           0.371521           10.10959
    452       0.00000           0.374986           10.20388
    453       0.00000           0.374987           10.20392
    454       0.00000           0.374993           10.20407
    455       0.00000           0.374994           10.20412
    456       0.00000           0.397101           10.80566
    457       0.00000           0.397111           10.80594
    458       0.00000           0.434764           11.83052
    459       0.00000           0.434769           11.83066
    460       0.00000           0.436018           11.86466
    461       0.00000           0.436020           11.86469
    462       0.00000           0.452812           12.32165
    463       0.00000           0.452817           12.32179
    464       0.00000           0.465521           12.66746
    465       0.00000           0.465527           12.66762
    466       0.00000           0.465544           12.66811
    467       0.00000           0.465549           12.66824
    468       0.00000           0.468681           12.75345
    469       0.00000           0.468686           12.75359
    470       0.00000           0.469928           12.78740
    471       0.00000           0.515548           14.02878
    472       0.00000           0.515554           14.02895
    473       0.00000           0.515688           14.03259
    474       0.00000           0.515688           14.03259
    475       0.00000           0.528209           14.37331
    476       0.00000           0.528216           14.37348
    477       0.00000           0.542238           14.75504
    478       0.00000           0.542244           14.75520
    479       0.00000           0.546232           14.86373
    480       0.00000           0.546235           14.86380
    481       0.00000           0.546239           14.86392
    482       0.00000           0.546242           14.86399
    483       0.00000           0.603030           16.40929
    484       0.00000           0.631901           17.19490
    485       0.00000           0.631907           17.19505
    486       0.00000           0.643508           17.51073
    487       0.00000           0.647075           17.60779
    488       0.00000           0.647080           17.60795

  What follows are estimated values for band gap, HOMO, LUMO, etc.
  | They are estimated on a discrete k-point grid and not necessarily exact.
  | For converged numbers, create a DOS and/or band structure plot on a denser k-grid.

  Highest occupied state (VBM) at     -8.70351950 eV (relative to internal zero)
  | Occupation number:      2.00000000
  | K-point:       1 at    0.000000    0.000000    0.000000 (in units of recip. lattice)

  Lowest unoccupied state (CBM) at    -6.93763334 eV (relative to internal zero)
  | Occupation number:      0.00000001
  | K-point:       1 at    0.000000    0.000000    0.000000 (in units of recip. lattice)

  ESTIMATED overall HOMO-LUMO gap:      1.76588617 eV between HOMO at k-point 1 and LUMO at k-point 1
  | This appears to be a direct band gap.
  The gap value is above 0.2 eV. Unless you are using a very sparse k-point grid,
  this system is most likely an insulator or a semiconductor.

  | Chemical Potential                          :    -6.97805713 eV
  | Note that, for insulating systems, the printed 'chemical potential' value is not uniquely defined.
  | It can be anywhere in the energy gap, as long as it correctly separates occupied and unoccupied states.
  | In systems with a gap, the physically relevant chemical potential is the VBM or HOMO.

  Self-consistency cycle converged.


------------------------------------------------------------
  End self-consistency iteration #    18       :  max(cpu_time)    wall_clock(cpu1)
  | Time for this iteration                     :        5.722 s           5.722 s
  | Charge density update                       :        0.000 s           0.000 s
  | Density mixing                              :        0.002 s           0.002 s
  | Hartree multipole update                    :        0.006 s           0.006 s
  | Hartree multipole summation                 :        0.155 s           0.154 s
  | Integration                                 :        0.515 s           0.516 s
  | Solution of K.-S. eqns.                     :        5.029 s           5.031 s
  | Total energy evaluation                     :        0.008 s           0.008 s

  Partial memory accounting:
  | Current value for overall tracked memory usage:
  |   Minimum:       62.921 MB (on task  72)
  |   Maximum:       69.989 MB (on task   3)
  |   Average:       63.162 MB
  | Peak value for overall tracked memory usage:
  |   Minimum:      117.334 MB (on task  72 after allocating eval_tmp)
  |   Maximum:      124.401 MB (on task   3 after allocating eval_tmp)
  |   Average:      117.574 MB
  | Largest tracked array allocation so far:
  |   Minimum:       21.088 MB (KS_eigenvector_complex on task   0)
  |   Maximum:       28.117 MB (KS_eigenvector_complex on task   1)
  |   Average:       21.308 MB
  Note:  These values currently only include a subset of arrays which are explicitly tracked.
  The "true" memory usage will be greater.
------------------------------------------------------------

  Energy and forces in a compact form:
  | Total energy uncorrected      :         -0.438407468342668E+06 eV
  | Total energy corrected        :         -0.438407468342668E+06 eV  <-- do not rely on this value for anything but (periodic) metals
  | Electronic free energy        :         -0.438407468342668E+06 eV

  ------------------------------------ 
  Start decomposition of the XC Energy 
  ------------------------------------ 
  X and C from original XC functional choice 
  Hartree-Fock Energy :          0.000000000 Ha              0.000000000 eV
  X Energy            :       -924.874079204 Ha         -25167.104183313 eV
  C Energy            :        -24.082274975 Ha           -655.312043981 eV
  XC Energy w/o HF    :       -948.956354179 Ha         -25822.416227294 eV
  Total XC Energy     :       -948.956354179 Ha         -25822.416227294 eV
  ------------------------------------ 
  LDA X and C from self-consistent density 
  X Energy LDA        :       -858.576355287 Ha         -23363.051326314 eV
  C Energy LDA        :        -46.967944817 Ha          -1278.062805601 eV
  ------------------------------------ 
  End decomposition of the XC Energy 
  ------------------------------------ 

------------------------------------------------------------

  ------------------------------------------------------------
                   Starting Mulliken Analysis
  ------------------------------------------------------------

  Performing Mulliken charge analysis on all atoms.
  Full analysis will be written to separate file 'Mulliken.out'.
  Summary of the per-atom charge analysis:
  |
  |  atom       electrons          charge             l=0             l=1             l=2             l=3
  |     1       20.750460        1.249540        5.962799       12.508640        2.134005        0.145015
  |     2       20.750456        1.249544        5.962807       12.508638        2.133999        0.145012
  |     3        8.624754       -0.624754        3.847972        4.766900        0.009882
  |     4        8.624781       -0.624781        3.847998        4.766900        0.009883
  |     5        8.624761       -0.624761        3.847990        4.766890        0.009881
  |     6        8.624736       -0.624736        3.847985        4.766867        0.009884
  |     7       20.750460        1.249540        5.962799       12.508640        2.134005        0.145015
  |     8       20.750459        1.249541        5.962794       12.508639        2.134004        0.145023
  |     9        8.624754       -0.624754        3.847972        4.766900        0.009882
  |    10        8.624781       -0.624781        3.847998        4.766900        0.009883
  |    11        8.624776       -0.624776        3.847991        4.766905        0.009880
  |    12        8.624795       -0.624795        3.847993        4.766923        0.009879
  |    13       20.750459        1.249541        5.962799       12.508640        2.134005        0.145015
  |    14       20.750482        1.249518        5.962786       12.508647        2.134025        0.145024
  |    15        8.624770       -0.624770        3.847962        4.766928        0.009881
  |    16        8.624763       -0.624763        3.848006        4.766873        0.009884
  |    17        8.624772       -0.624772        3.847983        4.766907        0.009882
  |    18        8.624767       -0.624767        3.847983        4.766902        0.009882
  |    19       20.750459        1.249541        5.962799       12.508640        2.134005        0.145015
  |    20       20.750449        1.249551        5.962805       12.508637        2.133994        0.145013
  |    21        8.624770       -0.624770        3.847962        4.766928        0.009881
  |    22        8.624763       -0.624763        3.848006        4.766873        0.009884
  |    23        8.624760       -0.624760        3.847986        4.766891        0.009883
  |    24        8.624770       -0.624770        3.847988        4.766901        0.009881
  |    25       20.750459        1.249541        5.962799       12.508640        2.134005        0.145015
  |    26       20.750488        1.249512        5.962783       12.508648        2.134032        0.145026
  |    27        8.624775       -0.624775        3.847962        4.766932        0.009881
  |    28        8.624768       -0.624768        3.848007        4.766877        0.009884
  |    29        8.624764       -0.624764        3.847978        4.766902        0.009884
  |    30        8.624775       -0.624775        3.847981        4.766912        0.009882
  |    31       20.750459        1.249541        5.962799       12.508640        2.134005        0.145015
  |    32       20.750455        1.249545        5.962802       12.508638        2.134000        0.145015
  |    33        8.624775       -0.624775        3.847962        4.766932        0.009881
  |    34        8.624768       -0.624768        3.848007        4.766877        0.009884
  |    35        8.624766       -0.624766        3.847983        4.766900        0.009883
  |    36        8.624763       -0.624763        3.847983        4.766896        0.009883
  |    37       20.750459        1.249541        5.962799       12.508640        2.134005        0.145015
  |    38       20.750477        1.249523        5.962794       12.508645        2.134022        0.145016
  |    39        8.624757       -0.624757        3.847970        4.766905        0.009882
  |    40        8.624785       -0.624785        3.847996        4.766906        0.009883
  |    41        8.624739       -0.624739        3.847973        4.766880        0.009886
  |    42        8.624758       -0.624758        3.847976        4.766898        0.009885
  |    43       20.750459        1.249541        5.962799       12.508640        2.134005        0.145015
  |    44       20.750480        1.249520        5.962781       12.508646        2.134027        0.145026
  |    45        8.624758       -0.624758        3.847970        4.766905        0.009882
  |    46        8.624785       -0.624785        3.847996        4.766906        0.009883
  |    47        8.624798       -0.624798        3.847981        4.766935        0.009881
  |    48        8.624773       -0.624773        3.847977        4.766913        0.009884
  |
  | Total      608.000000       -0.000000
 
  Writing Mulliken decomposition to disk ...

  Mulliken analysis                                       :  max(cpu_time)    wall_clock(cpu1)
  | Time for Mulliken analysis                            :         46.019              46.054
  | Total time for Mulliken analysis                      :         46.019              46.054
------------------------------------------------------------

------------------------------------------------------------------------------
  Final output of selected total energy values:

  The following output summarizes some interesting total energy values
  at the end of a run (AFTER all relaxation, molecular dynamics, etc.).

  | Total energy of the DFT / Hartree-Fock s.c.f. calculation      :        -438407.468342668 eV
  | Final zero-broadening corrected energy (caution - metals only) :        -438407.468342668 eV
  | For reference only, the value of 1 Hartree used in FHI-aims is :             27.211384500 eV
  | For reference only, the overall average (free atom contribution
  | + realspace contribution) of the electrostatic potential after
  | s.c.f. convergence is                                          :            -17.021297641 eV

  Before relying on these values, please be sure to understand exactly which
  total energy value is referred to by a given number. Different objects may
  all carry the same name 'total energy'. Definitions:

  Total energy of the DFT / Hartree-Fock s.c.f. calculation:
  | Note that this energy does not include ANY quantities calculated after the
  | s.c.f. cycle, in particular not ANY RPA, MP2, etc. many-body perturbation terms.

  Final zero-broadening corrected energy:
  | For metallic systems only, a broadening of the occupation numbers at the Fermi
  | level can be extrapolated back to zero broadening by an electron-gas inspired
  | formula. For all systems that are not real metals, this value can be
  | meaningless and should be avoided.

------------------------------------------------------------------------------
  Methods described in the following list of references were used in this FHI-aims run.
  If you publish the results, please make sure to cite these reference if they apply.
  FHI-aims is an academic code, and for our developers (often, Ph.D. students
  and postdocs), scientific credit in the community is essential.
  Thank you for helping us!

  For any use of FHI-aims, please cite:

    Volker Blum, Ralf Gehrke, Felix Hanke, Paula Havu, Ville Havu,
    Xinguo Ren, Karsten Reuter, and Matthias Scheffler
    'Ab initio molecular simulations with numeric atom-centered orbitals'
    Computer Physics Communications 180, 2175-2196 (2009)
    http://doi.org/10.1016/j.cpc.2009.06.022


  The provided symmetry information was generated with SPGlib:

    Atsushi Togo, Yusuke Seto, Dimitar Pashov
    SPGlib 1.7.3 obtained from http://spglib.sourceforge.net
    Licence: New BSD license
    Copyright (C) 2008 Atsushi Togo


  The ELSI infrastructure was used in your run to solve the Kohn-Sham electronic structure.
  Please check out https://wordpress.elsi-interchange.org to learn more.
  If scalability is important for your project, please acknowledge ELSI by citing:

    V. W-z. Yu, F. Corsetti, A. Garcia, W. P. Huhn, M. Jacquelin, W. Jia,
    B. Lange, L. Lin, J. Lu, W. Mi, A. Seifitokaldani, A. Vazquez-Mayagoitia,
    C. Yang, H. Yang, and V. Blum
    'ELSI: A unified software interface for Kohn-Sham electronic structure solvers'
    Computer Physics Communications 222, 267-285 (2018).
    http://doi.org/10.1016/j.cpc.2017.09.007


  For the real-space grid partitioning and parallelization used in this calculation, please cite:

    Ville Havu, Volker Blum, Paula Havu, and Matthias Scheffler,
    'Efficient O(N) integration for all-electron electronic structure calculation'
    'using numerically tabulated basis functions'
    Journal of Computational Physics 228, 8367-8379 (2009).
    http://doi.org/10.1016/j.jcp.2009.08.008

  Of course, there are many other important community references, e.g., those cited in the
  above references. Our list is limited to references that describe implementations in the
  FHI-aims code. The reason is purely practical (length of this list) - please credit others as well.

------------------------------------------------------------
          Leaving FHI-aims.
          Date     :  20240925, Time     :  150110.961

          Computational steps:
          | Number of self-consistency cycles          :           18
          | Number of SCF (re)initializations          :            1

          Detailed time accounting                     :  max(cpu_time)    wall_clock(cpu1)
          | Total time                                  :      194.532 s         194.542 s
          | Preparation time                            :        0.368 s           0.363 s
          | Boundary condition initalization            :        0.104 s           0.103 s
          | Grid partitioning                           :        0.124 s           0.124 s
          | Preloading free-atom quantities on grid     :        0.361 s           0.362 s
          | Free-atom superposition energy              :        0.034 s           0.034 s
          | Total time for integrations                 :       10.026 s          10.026 s
          | Total time for solution of K.-S. equations  :      111.549 s         111.571 s
          | Total time for density update               :       22.734 s          22.735 s
          | Total time for mixing                       :        0.034 s           0.033 s
          | Total time for Hartree multipole update     :        0.099 s           0.101 s
          | Total time for Hartree multipole sum        :        2.690 s           2.687 s
          | Total time for total energy evaluation      :        0.172 s           0.180 s
          | Total time for scaled ZORA corrections      :        0.000 s           0.000 s
          | Total time for Mulliken analysis            :       46.052 s          46.054 s

          Partial memory accounting:
          | Residual value for overall tracked memory usage across tasks:     0.000000 MB (should be 0.000000 MB)
          | Peak values for overall tracked memory usage:
          |   Minimum:      117.334 MB (on task  72 after allocating eval_tmp)
          |   Maximum:      124.401 MB (on task   3 after allocating eval_tmp)
          |   Average:      117.574 MB
          | Largest tracked array allocation:
          |   Minimum:       21.088 MB (KS_eigenvector_complex on task   0)
          |   Maximum:       28.117 MB (KS_eigenvector_complex on task   1)
          |   Average:       21.308 MB
          Note:  These values currently only include a subset of arrays which are explicitly tracked.
          The "true" memory usage will be greater.

          Have a nice day.
------------------------------------------------------------
