------------------------------------------------------------
          Invoking FHI-aims ...

          When using FHI-aims, please cite the following reference:

            Volker Blum, Ralf Gehrke, Felix Hanke, Paula Havu,
            Ville Havu, Xinguo Ren, Karsten Reuter, and Matthias Scheffler,
            'Ab Initio Molecular Simulations with Numeric Atom-Centered Orbitals',
            Computer Physics Communications 180, 2175-2196 (2009)

          In addition, many other developments in FHI-aims are likely important for
          your particular application. If so, please cite them. A partial list of references
          is written at the end of this file. Thank you for giving credit to the authors
          of these developments.

          For general information about FHI-aims please find us at

            https://fhi-aims.org

          Online tutorials can be found at

            https://fhi-aims-club.gitlab.io/tutorials/tutorials-overview/

          For any questions about FHI-aims, please visit our slack channel at

            https://fhi-aims.slack.com

          and our main development and support site at

            https://aims-git.rz-berlin.mpg.de .

          The latter site, in particular, has a wiki to collect information, as well
          as an issue tracker to log discussions, suggest improvements, and report issues
          or bugs. https://aims-git.rz-berlin.mpg.de is also the main development site
          of the project and all new and updated code versions can be obtained there.
          Please send an email to aims-coordinators@fhi-berlin.mpg.de and we will add
          you to these sites. They are for you and everyone is welcome there.

------------------------------------------------------------



  Date     :  20250311, Time     :  161546.893
  Time zero on CPU 1             :   0.376172000000000E+00  s.
  Internal wall clock time zero  :           510941746.893  s.

  FHI-aims created a unique identifier for this run for later identification
  aims_uuid : C17E6779-E823-411F-A6DA-26C96C1CC1B2

  Build configuration of the current instance of FHI-aims
  -------------------------------------------------------
  FHI-aims version      : 240605
  Commit number         : b001b2e18
  CMake host system     : Linux-6.5.0-41-generic
  CMake version         : 3.22.1
  Fortran compiler      : /opt/intel/oneapi/mpi/2021.12/bin/mpiifort (IntelLLVM) version 2024.1.0
  Fortran compiler flags: -fc=ifx -O3 -ip -fp-model precise
  C compiler            : /opt/intel/oneapi/mpi/2021.12/bin/mpiicc (IntelLLVM) version 2024.1.0
  C compiler flags      : -cc=icx -O3 -ip -fp-model precise -std=gnu99
  C++ compiler          : /opt/intel/oneapi/mpi/2021.12/bin/mpiicpc (IntelLLVM) version 2024.1.0
  C++ compiler flags    : -cxx=icpx -O3 -ip -fp-model precise -std=c++11
  HIP compiler          :
  HIP compiler flags    :
  HIP GPU arch          :
  Using MPI
  Using ScaLAPACK
  Using LibXC
  Using i-PI
  Using RLSY
  Linking against: /opt/intel/oneapi/mkl/2024.1/lib/intel64/libmkl_intel_lp64.so
                   /opt/intel/oneapi/mkl/2024.1/lib/intel64/libmkl_sequential.so
                   /opt/intel/oneapi/mkl/2024.1/lib/intel64/libmkl_core.so
                   /opt/intel/oneapi/mkl/2024.1/lib/intel64/libmkl_blacs_intelmpi_lp64.so
                   /opt/intel/oneapi/mkl/2024.1/lib/intel64/libmkl_scalapack_lp64.so
                   /opt/intel/oneapi/mkl/2024.1/lib/intel64/libmkl_core.so

  Using       32 parallel tasks.
  Task        0 on host RSL-arvutus reporting.
  Task        1 on host RSL-arvutus reporting.
  Task        2 on host RSL-arvutus reporting.
  Task        3 on host RSL-arvutus reporting.
  Task        4 on host RSL-arvutus reporting.
  Task        5 on host RSL-arvutus reporting.
  Task        6 on host RSL-arvutus reporting.
  Task        7 on host RSL-arvutus reporting.
  Task        8 on host RSL-arvutus reporting.
  Task        9 on host RSL-arvutus reporting.
  Task       10 on host RSL-arvutus reporting.
  Task       11 on host RSL-arvutus reporting.
  Task       12 on host RSL-arvutus reporting.
  Task       13 on host RSL-arvutus reporting.
  Task       14 on host RSL-arvutus reporting.
  Task       15 on host RSL-arvutus reporting.
  Task       16 on host RSL-arvutus reporting.
  Task       17 on host RSL-arvutus reporting.
  Task       18 on host RSL-arvutus reporting.
  Task       19 on host RSL-arvutus reporting.
  Task       20 on host RSL-arvutus reporting.
  Task       21 on host RSL-arvutus reporting.
  Task       22 on host RSL-arvutus reporting.
  Task       23 on host RSL-arvutus reporting.
  Task       24 on host RSL-arvutus reporting.
  Task       25 on host RSL-arvutus reporting.
  Task       26 on host RSL-arvutus reporting.
  Task       27 on host RSL-arvutus reporting.
  Task       28 on host RSL-arvutus reporting.
  Task       29 on host RSL-arvutus reporting.
  Task       30 on host RSL-arvutus reporting.
  Task       31 on host RSL-arvutus reporting.

  Memory overcommitment is allowed on your operating system.

  Obtaining array dimensions for all initial allocations:
  
  -----------------------------------------------------------------------
  Parsing control.in (first pass over file, find array dimensions only).
  The contents of control.in will be repeated verbatim below
  unless switched off by setting 'verbatim_writeout .false.' .
  in the first line of control.in .
  -----------------------------------------------------------------------
  
  xc                 pbe
  relativistic       zora scalar 1.0e-12
  spin               collinear
  charge             1.0
  default_initial_moment  1.0
  KS_method          serial
  force_occupation_basis 2 1 atomic 1 0 0 0.0 5
  ################################################################################
  #
  #  FHI-aims code project
  #  Volker Blum, Fritz Haber Institute Berlin, 2009
  #
  #  Suggested "tight" defaults for H atom (to be pasted into control.in file)
  #
  ################################################################################
    species        H
  #     global species definitions
      nucleus             1
      mass                1.00794
  #
      l_hartree           6
  #
      cut_pot             4.0  2.0  1.0
      basis_dep_cutoff    1e-4
  #
      radial_base         24 7.0
      radial_multiplier   2
      angular_grids       specified
        division   0.1930   50
        division   0.3175  110
        division   0.4293  194
        division   0.5066  302
        division   0.5626  434
  #      division   0.5922  590
  #      division   0.6227  974
  #      division   0.6868 1202
  #      outer_grid  770
        outer_grid  434
  ################################################################################
  #
  #  Definition of "minimal" basis
  #
  ################################################################################
  #     valence basis states
      valence      1  s   1.
  #     ion occupancy
      ion_occ      1  s   0.5
  ################################################################################
  #
  #  Suggested additional basis functions. For production calculations,
  #  uncomment them one after another (the most important basis functions are
  #  listed first).
  #
  #  Basis constructed for dimers: 0.5 A, 0.7 A, 1.0 A, 1.5 A, 2.5 A
  #
  ################################################################################
  #  "First tier" - improvements: -1014.90 meV to -62.69 meV
       hydro 2 s 2.1
       hydro 2 p 3.5
  #  "Second tier" - improvements: -12.89 meV to -1.83 meV
       hydro 1 s 0.85
       hydro 2 p 3.7
       hydro 2 s 1.2
       hydro 3 d 7
  #  "Third tier" - improvements: -0.25 meV to -0.12 meV
  #     hydro 4 f 11.2
  #     hydro 3 p 4.8
  #     hydro 4 d 9
  #     hydro 3 s 3.2
  ################################################################################
  #
  # For methods that use the localized form of the "resolution of identity" for
  # the two-electron Coulomb operator (RI_method LVL), particularly Hartree-Fock and
  # hybrid density functional calculations, the highest accuracy can be obtained by
  # uncommenting the line beginning with "for_aux"  below, thus adding an extra g radial
  # function to the construction of the product basis set for the expansion.
  # See Ref. New J. Phys. 17, 093020 (2015) for more information, particularly Figs. 1 and 6.
  #
  ################################################################################
  #
  # for_aux hydro 5 g 6.0
  ################################################################################
  #
  #  FHI-aims code project
  #  Volker Blum, Fritz Haber Institute Berlin, 2009
  #
  #  Suggested "tight" defaults for C atom (to be pasted into control.in file)
  #
  ################################################################################
    species        C
  #     global species definitions
      nucleus             6
      mass                12.0107
  #
      l_hartree           6
  #
      cut_pot             4.0  2.0  1.0
      basis_dep_cutoff    1e-4
  #
      radial_base         34 7.0
      radial_multiplier   2
      angular_grids specified
        division   0.2187   50
        division   0.4416  110
        division   0.6335  194
        division   0.7727  302
        division   0.8772  434
  #      division   0.9334  590
  #      division   0.9924  770
  #      division   1.0230  974
  #      division   1.5020 1202
  #     outer_grid  974
        outer_grid  434
  ################################################################################
  #
  #  Definition of "minimal" basis
  #
  ################################################################################
  #     valence basis states
      valence      2  s   2.
      valence      2  p   2.
  #     ion occupancy
      ion_occ      2  s   1.
      ion_occ      2  p   1.
  ################################################################################
  #
  #  Suggested additional basis functions. For production calculations,
  #  uncomment them one after another (the most important basis functions are
  #  listed first).
  #
  #  Constructed for dimers: 1.0 A, 1.25 A, 1.5 A, 2.0 A, 3.0 A
  #
  ################################################################################
  #  "First tier" - improvements: -1214.57 meV to -155.61 meV
       hydro 2 p 1.7
       hydro 3 d 6
       hydro 2 s 4.9
  #  "Second tier" - improvements: -67.75 meV to -5.23 meV
       hydro 4 f 9.8
       hydro 3 p 5.2
       hydro 3 s 4.3
       hydro 5 g 14.4
       hydro 3 d 6.2
  #  "Third tier" - improvements: -2.43 meV to -0.60 meV
  #     hydro 2 p 5.6
  #     hydro 2 s 1.4
  #     hydro 3 d 4.9
  #     hydro 4 f 11.2
  #  "Fourth tier" - improvements: -0.39 meV to -0.18 meV
  #     hydro 2 p 2.1
  #     hydro 5 g 16.4
  #     hydro 4 d 13.2
  #     hydro 3 s 13.6
  #     hydro 4 f 17.6
  #  Further basis functions - improvements: -0.08 meV and below
  #     hydro 3 s 2
  #     hydro 3 p 6
  #     hydro 4 d 20
  ################################################################################
  #
  # For methods that use the localized form of the "resolution of identity" for
  # the two-electron Coulomb operator (RI_method LVL), particularly Hartree-Fock and
  # hybrid density functional calculations, the highest accuracy can be obtained by
  # uncommenting the line beginning with "for_aux"  below, thus adding an extra g radial
  # function to the construction of the product basis set for the expansion.
  # See Ref. New J. Phys. 17, 093020 (2015) for more information, particularly Figs. 1 and 6.
  #
  ################################################################################
  #
  # for_aux hydro 5 g 6.0
  ################################################################################
  #
  #  FHI-aims code project
  #  Volker Blum, Fritz Haber Institute Berlin, 2009
  #
  #  Suggested "tight" defaults for O atom (to be pasted into control.in file)
  #
  ################################################################################
    species        O
  #     global species definitions
      nucleus             8
      mass                15.9994
  #
      l_hartree           6
  #
      cut_pot             4.0  2.0  1.0
      basis_dep_cutoff    1e-4
  #
      radial_base         36 7.0
      radial_multiplier   2
       angular_grids specified
        division   0.1817   50
        division   0.3417  110
        division   0.4949  194
        division   0.6251  302
        division   0.8014  434
  #      division   0.8507  590
  #      division   0.8762  770
  #      division   0.9023  974
  #      division   1.2339 1202
  #      outer_grid 974
        outer_grid  434
  ################################################################################
  #
  #  Definition of "minimal" basis
  #
  ################################################################################
  #     valence basis states
      valence      2  s   2.
      valence      2  p   4.
  #     ion occupancy
      ion_occ      2  s   1.
      ion_occ      2  p   3.
  ################################################################################
  #
  #  Suggested additional basis functions. For production calculations,
  #  uncomment them one after another (the most important basis functions are
  #  listed first).
  #
  #  Constructed for dimers: 1.0 A, 1.208 A, 1.5 A, 2.0 A, 3.0 A
  #
  ################################################################################
  #  "First tier" - improvements: -699.05 meV to -159.38 meV
       hydro 2 p 1.8
       hydro 3 d 7.6
       hydro 3 s 6.4
  #  "Second tier" - improvements: -49.91 meV to -5.39 meV
       hydro 4 f 11.6
       hydro 3 p 6.2
       hydro 3 d 5.6
       hydro 5 g 17.6
       hydro 1 s 0.75
  #  "Third tier" - improvements: -2.83 meV to -0.50 meV
  #     ionic 2 p auto
  #     hydro 4 f 10.8
  #     hydro 4 d 4.7
  #     hydro 2 s 6.8
  #  "Fourth tier" - improvements: -0.40 meV to -0.12 meV
  #     hydro 3 p 5
  #     hydro 3 s 3.3
  #     hydro 5 g 15.6
  #     hydro 4 f 17.6
  #     hydro 4 d 14
  # Further basis functions - -0.08 meV and below
  #     hydro 3 s 2.1
  #     hydro 4 d 11.6
  #     hydro 3 p 16
  #     hydro 2 s 17.2
  ################################################################################
  #
  # For methods that use the localized form of the "resolution of identity" for
  # the two-electron Coulomb operator (RI_method LVL), particularly Hartree-Fock and
  # hybrid density functional calculations, the highest accuracy can be obtained by
  # uncommenting the line beginning with "for_aux"  below, thus adding an extra g radial
  # function to the construction of the product basis set for the expansion.
  # See Ref. New J. Phys. 17, 093020 (2015) for more information, particularly Figs. 1 and 6.
  #
  ################################################################################
  #
  # for_aux hydro 5 g 6.0
  
  -----------------------------------------------------------------------
  Completed first pass over input file control.in .
  -----------------------------------------------------------------------
  
  
  -----------------------------------------------------------------------
  Parsing geometry.in (first pass over file, find array dimensions only).
  The contents of geometry.in will be repeated verbatim below
  unless switched off by setting 'verbatim_writeout .false.' .
  in the first line of geometry.in .
  -----------------------------------------------------------------------
  
  #
  # This is the geometry file that corresponds to the current relaxation step.
  # If you do not want this file to be written, set the "write_restart_geometry" flag to .false.
  #  aims_uuid : 41474E25-6416-445A-AD69-EBB019BE4B14
  #
  atom      -1.18858981      0.17204448      0.00004233 O
  atom       1.08598725      0.22808010     -0.00001524 O
  atom       0.04623286     -0.38312059      0.00005087 C
  atom      -0.04942104     -1.48488773      0.00016312 H
  atom      -1.05960926      1.14248374     -0.00004108 H
  #
  # What follows is the current estimated Hessian matrix constructed by the BFGS algorithm.
  # This is NOT the true Hessian matrix of the system.
  # If you do not want this information here, switch it off using the "hessian_to_restart_geometry" keyword.
  #
  trust_radius             0.0195026365
  hessian_file
  
  -----------------------------------------------------------------------
  Completed first pass over input file geometry.in .
  -----------------------------------------------------------------------
  

  Basic array size parameters:
  | Number of species                 :        3
  | Number of atoms                   :        5
  | Max. basis fn. angular momentum   :        4
  | Max. atomic/ionic basis occupied n:        2
  | Max. number of basis fn. types    :        2
  | Max. radial fns per species/type  :        8
  | Max. logarithmic grid size        :     1301
  | Max. radial integration grid size :       73
  | Max. angular integration grid size:      434
  | Max. angular grid division number :        8
  | Radial grid for Hartree potential :     1301
  | Number of spin channels           :        2

------------------------------------------------------------
          Reading file control.in.
------------------------------------------------------------
  XC: Using PBE gradient-corrected functionals.
  Scalar relativistic treatment of kinetic energy: ZORA.
  Threshold value for ZORA:   0.100000E-11
  Spin treatment: Spin density functional theory - collinear spins.
  Charged system requested: Charge =   0.100000E+01.
  Initial spin moment per atom:   1.0000
  Kohn-Sham eigenvalues and eigenfunctions calculated by LAPACK via ELSI.
  Occupation forced using basis function selection
    selected atom:     2
    selected spin channel:   1
    selected basis function - n l m:     1    0    0
    maximum number KS state for forcing occupation:        5
 
  Reading configuration options for species H                   .
  | Found nuclear charge :   1.0000
  | Found atomic mass :    1.00794000000000      amu
  | Found l_max for Hartree potential  :   6
  | Found cutoff potl. onset [A], width [A], scale factor :    4.00000    2.00000    1.00000
  | Threshold for basis-dependent cutoff potential is   0.100000E-03
  | Found data for basic radial integration grid :    24 points, outermost radius =    7.000 A
  | Found multiplier for basic radial grid :   2
  | Found angular grid specification: user-specified.
  | Specified grid contains     6 separate shells.
  | Check grid settings after all constraints further below.
  | Found free-atom valence shell :  1 s   1.000
  | No ionic wave fns used. Skipping ion_occ.
  | Found hydrogenic basis function :  2 s   2.100
  | Found hydrogenic basis function :  2 p   3.500
  | Found hydrogenic basis function :  1 s   0.850
  | Found hydrogenic basis function :  2 p   3.700
  | Found hydrogenic basis function :  2 s   1.200
  | Found hydrogenic basis function :  3 d   7.000
 | Encountered keyword species, ending the description of species H                   .
  Species H                   : Missing cutoff potential type.
  Defaulting to exp(1/x)/(1-x)^2 type cutoff potential.
  Species H : No 'logarithmic' tag. Using default grid for free atom:
  | Default logarithmic grid data [bohr] : 0.1000E-03 0.1000E+03 0.1012E+01
  Species H : On-site basis accuracy parameter (for Gram-Schmidt orthonormalisation) not specified.
  Using default value basis_acc =  0.1000000E-03.
  Species H                   : Using default innermost maximum threshold i_radial=  2 for radial functions.
  Species H                   : Default cutoff onset for free atom density etc. : 0.40000000E+01 AA.
  Species H                   : Basic radial grid will be enhanced according to radial_multiplier =   2, to contain    49 grid points.
 
  Reading configuration options for species C                   .
  | Found nuclear charge :   6.0000
  | Found atomic mass :    12.0107000000000      amu
  | Found l_max for Hartree potential  :   6
  | Found cutoff potl. onset [A], width [A], scale factor :    4.00000    2.00000    1.00000
  | Threshold for basis-dependent cutoff potential is   0.100000E-03
  | Found data for basic radial integration grid :    34 points, outermost radius =    7.000 A
  | Found multiplier for basic radial grid :   2
  | Found angular grid specification: user-specified.
  | Specified grid contains     6 separate shells.
  | Check grid settings after all constraints further below.
  | Found free-atom valence shell :  2 s   2.000
  | Found free-atom valence shell :  2 p   2.000
  | No ionic wave fns used. Skipping ion_occ.
  | No ionic wave fns used. Skipping ion_occ.
  | Found hydrogenic basis function :  2 p   1.700
  | Found hydrogenic basis function :  3 d   6.000
  | Found hydrogenic basis function :  2 s   4.900
  | Found hydrogenic basis function :  4 f   9.800
  | Found hydrogenic basis function :  3 p   5.200
  | Found hydrogenic basis function :  3 s   4.300
  | Found hydrogenic basis function :  5 g  14.400
  | Found hydrogenic basis function :  3 d   6.200
 | Encountered keyword species, ending the description of species C                   .
  Species C                   : Missing cutoff potential type.
  Defaulting to exp(1/x)/(1-x)^2 type cutoff potential.
  Species C : No 'logarithmic' tag. Using default grid for free atom:
  | Default logarithmic grid data [bohr] : 0.1000E-03 0.1000E+03 0.1012E+01
  Species C : On-site basis accuracy parameter (for Gram-Schmidt orthonormalisation) not specified.
  Using default value basis_acc =  0.1000000E-03.
  Species C                   : Using default innermost maximum threshold i_radial=  2 for radial functions.
  Species C                   : Default cutoff onset for free atom density etc. : 0.40000000E+01 AA.
  Species C                   : Basic radial grid will be enhanced according to radial_multiplier =   2, to contain    69 grid points.
 
  Reading configuration options for species O                   .
  | Found nuclear charge :   8.0000
  | Found atomic mass :    15.9994000000000      amu
  | Found l_max for Hartree potential  :   6
  | Found cutoff potl. onset [A], width [A], scale factor :    4.00000    2.00000    1.00000
  | Threshold for basis-dependent cutoff potential is   0.100000E-03
  | Found data for basic radial integration grid :    36 points, outermost radius =    7.000 A
  | Found multiplier for basic radial grid :   2
  | Found angular grid specification: user-specified.
  | Specified grid contains     6 separate shells.
  | Check grid settings after all constraints further below.
  | Found free-atom valence shell :  2 s   2.000
  | Found free-atom valence shell :  2 p   4.000
  | No ionic wave fns used. Skipping ion_occ.
  | No ionic wave fns used. Skipping ion_occ.
  | Found hydrogenic basis function :  2 p   1.800
  | Found hydrogenic basis function :  3 d   7.600
  | Found hydrogenic basis function :  3 s   6.400
  | Found hydrogenic basis function :  4 f  11.600
  | Found hydrogenic basis function :  3 p   6.200
  | Found hydrogenic basis function :  3 d   5.600
  | Found hydrogenic basis function :  5 g  17.600
  | Found hydrogenic basis function :  1 s   0.750
  Species O                   : Missing cutoff potential type.
  Defaulting to exp(1/x)/(1-x)^2 type cutoff potential.
  Species O : No 'logarithmic' tag. Using default grid for free atom:
  | Default logarithmic grid data [bohr] : 0.1000E-03 0.1000E+03 0.1012E+01
  Species O : On-site basis accuracy parameter (for Gram-Schmidt orthonormalisation) not specified.
  Using default value basis_acc =  0.1000000E-03.
  Species O                   : Using default innermost maximum threshold i_radial=  2 for radial functions.
  Species O                   : Default cutoff onset for free atom density etc. : 0.40000000E+01 AA.
  Species O                   : Basic radial grid will be enhanced according to radial_multiplier =   2, to contain    73 grid points.
 
  Finished reading input file 'control.in'.
 
------------------------------------------------------------


------------------------------------------------------------
          Reading geometry description geometry.in.
------------------------------------------------------------
  Found keyword 'hessian_file', indicating that this is the continuation of a structure optimization.
  However, the control.in file does not request the geometry to be optimized.
  Ignoring the request for a file 'hessian.aims' to be present.
  | The smallest distance between any two atoms is         0.97897311 AA.
  | The first atom of this pair is atom number                      1 .
  | The second atom of this pair is atom number                     5 .
  Input structure read successfully.
  The structure contains        5 atoms,  and a total of         23.000 electrons.

  Input geometry:
  | No unit cell requested.
  | Atomic structure:
  |       Atom                x [A]            y [A]            z [A]
  |    1: Species O            -1.18858981        0.17204448        0.00004233
  |    2: Species O             1.08598725        0.22808010       -0.00001524
  |    3: Species C             0.04623286       -0.38312059        0.00005087
  |    4: Species H            -0.04942104       -1.48488773        0.00016312
  |    5: Species H            -1.05960926        1.14248374       -0.00004108

  Initial moments and charges:
  |  Atom   Moment         Charge        Species
  |     1   0.100000E+01   0.000000E+00   O
  |     2   0.100000E+01   0.000000E+00   O
  |     3   0.100000E+01   0.000000E+00   C
  |     4   0.100000E+01   0.000000E+00   H
  |     5   0.100000E+01   0.000000E+00   H

  Slab Identifier: This is not a periodic structure.
 
  Finished reading input file 'geometry.in'.
 

 
  Consistency checks for stacksize environment parameter are next.
 
  | Maximum stacksize for task 0: unlimited
  | Maximum stacksize for task 1: unlimited
  | Maximum stacksize for task 2: unlimited
  | Maximum stacksize for task 3: unlimited
  | Maximum stacksize for task 4: unlimited
  | Maximum stacksize for task 5: unlimited
  | Maximum stacksize for task 6: unlimited
  | Maximum stacksize for task 7: unlimited
  | Maximum stacksize for task 8: unlimited
  | Maximum stacksize for task 9: unlimited
  | Maximum stacksize for task 10: unlimited
  | Maximum stacksize for task 11: unlimited
  | Maximum stacksize for task 12: unlimited
  | Maximum stacksize for task 13: unlimited
  | Maximum stacksize for task 14: unlimited
  | Maximum stacksize for task 15: unlimited
  | Maximum stacksize for task 16: unlimited
  | Maximum stacksize for task 17: unlimited
  | Maximum stacksize for task 18: unlimited
  | Maximum stacksize for task 19: unlimited
  | Maximum stacksize for task 20: unlimited
  | Maximum stacksize for task 21: unlimited
  | Maximum stacksize for task 22: unlimited
  | Maximum stacksize for task 23: unlimited
  | Maximum stacksize for task 24: unlimited
  | Maximum stacksize for task 25: unlimited
  | Maximum stacksize for task 26: unlimited
  | Maximum stacksize for task 27: unlimited
  | Maximum stacksize for task 28: unlimited
  | Maximum stacksize for task 29: unlimited
  | Maximum stacksize for task 30: unlimited
  | Maximum stacksize for task 31: unlimited
  | Current stacksize for task 0: unlimited
  | Current stacksize for task 1: unlimited
  | Current stacksize for task 2: unlimited
  | Current stacksize for task 3: unlimited
  | Current stacksize for task 4: unlimited
  | Current stacksize for task 5: unlimited
  | Current stacksize for task 6: unlimited
  | Current stacksize for task 7: unlimited
  | Current stacksize for task 8: unlimited
  | Current stacksize for task 9: unlimited
  | Current stacksize for task 10: unlimited
  | Current stacksize for task 11: unlimited
  | Current stacksize for task 12: unlimited
  | Current stacksize for task 13: unlimited
  | Current stacksize for task 14: unlimited
  | Current stacksize for task 15: unlimited
  | Current stacksize for task 16: unlimited
  | Current stacksize for task 17: unlimited
  | Current stacksize for task 18: unlimited
  | Current stacksize for task 19: unlimited
  | Current stacksize for task 20: unlimited
  | Current stacksize for task 21: unlimited
  | Current stacksize for task 22: unlimited
  | Current stacksize for task 23: unlimited
  | Current stacksize for task 24: unlimited
  | Current stacksize for task 25: unlimited
  | Current stacksize for task 26: unlimited
  | Current stacksize for task 27: unlimited
  | Current stacksize for task 28: unlimited
  | Current stacksize for task 29: unlimited
  | Current stacksize for task 30: unlimited
  | Current stacksize for task 31: unlimited
 
  Consistency checks for the contents of control.in are next.
 
  *** WARNING: The force_occupation functionality has been replaced with new deltascf_basis ***
  *** and deltascf_projector and will be removed in an upcoming release ***
  MPI_IN_PLACE appears to work with this MPI implementation.
  | Keeping use_mpi_in_place .true. (see manual).
  Target number of points in a grid batch is not set. Defaulting to  100
  Method for grid partitioning is not set. Defaulting to parallel hash+maxmin partitioning.
  Batch size limit is not set. Defaulting to    200
  By default, will store active basis functions for each batch.
  If in need of memory, prune_basis_once .false. can be used to disable this option.
  communication_type for Hartree potential was not specified.
  Defaulting to calc_hartree .
  Defaulting to Pulay charge density mixer.
  Pulay mixer: Number of relevant iterations not set.
  Defaulting to    8 iterations.
  Pulay mixer: Number of initial linear mixing iterations not set.
  Defaulting to    0 iterations.
  Work space size for distributed Hartree potential not set.
  Defaulting to   0.200000E+03 MB.
  Mixing parameter for charge density mixing has not been set.
  Using default: charge_mix_param =     0.0500.
  The mixing parameter will be adjusted in iteration number     2 of each s.c.f. cycle (i.e., each geometry step).
  Mixing parameter for spin density mixing has not been set.
  Using charge_mix_param as default:     0.0500.
  Algorithm-dependent basis array size parameters:
  | n_max_pulay                         :        8
  Maximum number of self-consistency iterations not provided.
  Presetting  1000 iterations.
  Presetting      1001 iterations before the initial mixing cycle
  is restarted anyway using the sc_init_iter criterion / keyword.
  Presetting a factor      1.000 between actual scf density residual
  and density convergence criterion sc_accuracy_rho below which sc_init_iter
  takes no effect.
 * No s.c.f. convergence criteria (sc_accuracy_*) were provided in control.in.
 * The run will proceed with a reasonable default guess, but please check whether.
 * the s.c.f. cycles seem to take too much or too little time.
  Calculation of forces was not defined in control.in. No forces will be calculated.
  Geometry relaxation not requested: no relaxation will be performed.
 * Notice: The s.c.f. convergence criterion sc_accuracy_rho was not provided.
 * We used to stop in this case, and ask the user to provide reasonable
 * scf convergence criteria. However, this led some users to employ criteria
 * that led to extremely long run times, e.g., for simple relaxation.
 * We now preset a default value for sc_accuracy_rho if it is not set.
 * You may still wish to check if this setting is too tight or too loose for your needs.
 * Based on n_atoms and forces and force-correction status, FHI-aims chose sc_accuracy_rho =  0.800000E-05 .
  No accuracy limit for integral partition fn. given. Defaulting to  0.1000E-14.
  No threshold value for u(r) in integrations given. Defaulting to  0.1000E-05.
  No occupation type (smearing scheme) given. Defaulting to Gaussian broadening, width =  0.1000E-01 eV.
  The width will be adjusted in iteration number     2 of each s.c.f. cycle (i.e., each geometry step).
  No accuracy for occupation numbers given. Defaulting to  0.1000E-07.
  No threshold value for occupation numbers given. Defaulting to  0.0000E+00.
  No accuracy for fermi level given. Defaulting to  0.1000E-19.
  Maximum # of iterations to find E_F not set. Defaulting to  200.
  Will not use alltoall communication since running on < 1024 CPUs.
  Threshold for basis singularities not set.
  Default threshold for basis singularities:  0.1000E-04
  partition_type (choice of integration weights) for integrals was not specified.
  | Using a version of the partition function of Stratmann and coworkers ('stratmann_sparse').
  | At each grid point, the set of atoms used to build the partition table is smoothly restricted to
  | only those atoms whose free-atom density would be non-zero at that grid point.
  Partitioning for Hartree potential was not defined. Using partition_type for integrals.
  | Adjusted default value of keyword multip_moments_threshold to:       0.10000000E-11
  | This value may affect high angular momentum components of the Hartree potential in periodic systems.
  No q(lm)/r^(l+1) cutoff set for long-range Hartree potential.
  | Using default value of  0.100000E-09 .
  | Verify using the multipole_threshold keyword.
  Defaulting to new monopole extrapolation.
  Density update method: automatic selection selected.
  Charge integration errors on the 3D integration grid will be compensated
  by explicit normalization and distribution of residual charges.
  Use the "compensate_multipole_errors" flag to change this behaviour.
  Set 'collect_eigenvectors' to be '.true.' for all serial calculations. This is mandatory.
  Set 'collect_eigenvectors' to be '.true.' for use_density_matrix .false.
  Set 'collect_eigenvectors' to be '.true.' for KS_method lapack_fast and serial.
  Found potential conflicts with setting 'use_local_index' for this calculation. Will not set it.
 
  Consistency checks for the contents of geometry.in are next.
 
 * Warning: Initial charge and total charge of the system are inconsistent.
 * Selected charge in control.in:     1.0000* Sum of initial charges in geometry.in:     0.0000
  Number of empty states per atom not set in control.in - providing a guess from actual geometry.
  | Total number of empty states used during s.c.f. cycle:       12
  If you use a very high smearing, use empty_states (per atom!) in control.in to increase this value.

  Structure-dependent array size parameters: 
  | Number of distinct atom types in initial rho :        3
  | Maximum number of distinct radial functions  :       29
  | Maximum number of basis functions            :      147
  | Number of Kohn-Sham states (occupied + empty):       24
------------------------------------------------------------
  After read_input_data [GB]:   1032.98

  Performing system and environment tests:
  *** Environment variable OMP_NUM_THREADS is not set
  *** For performance reasons you might want to set it to 1
  | Checking for ScaLAPACK...
  | Testing pdtran()...
  | All pdtran() tests passed.
  After prepare_system [GB]:   1032.83

------------------------------------------------------------
          Preparing all fixed parts of the calculation.
------------------------------------------------------------
  Determining machine precision:
    2.225073858507201E-308
  Setting up grids for atomic and cluster calculations.

  Creating wave function, potential, and density for free atoms.
  Runtime choices for atomic solver:
  | atomic solver xc        : PBE
  | compute density gradient: 1
  | compute kinetic density : F

  Species: H

  List of occupied orbitals and eigenvalues:
    n    l              occ      energy [Ha]    energy [eV]
    1    0           1.0000        -0.238386        -6.4868


  Species: C

  List of occupied orbitals and eigenvalues:
    n    l              occ      energy [Ha]    energy [eV]
    1    0           2.0000       -10.049212      -273.4530
    2    0           2.0000        -0.504761       -13.7352
    2    1           2.0000        -0.193631        -5.2690


  Species: O

  List of occupied orbitals and eigenvalues:
    n    l              occ      energy [Ha]    energy [eV]
    1    0           2.0000       -18.927378      -515.0401
    2    0           2.0000        -0.880539       -23.9607
    2    1           4.0000        -0.331811        -9.0290

  Spin-polarized or charged system:
  Charge density initialized according to selected moments and charges.

  Creating spin-polarized density from free atoms.

  Species: O
  Charge:   0.000000
  Moment:   1.000000

  List of occupied orbitals and eigenvalues:
    n    l      energy [Ha]    energy [eV]    occupation
  Spin-up
    1    0       -18.934229      -515.2266     1.00000000
    2    0        -0.906872       -24.6772     1.00000000
    2    1        -0.356742        -9.7074     2.50000000
  Spin-down
    1    0       -18.911454      -514.6069     1.00000000
    2    0        -0.847558       -23.0632     1.00000000
    2    1        -0.301004        -8.1907     1.50000000


  Species: C
  Charge:   0.000000
  Moment:   1.000000

  List of occupied orbitals and eigenvalues:
    n    l      energy [Ha]    energy [eV]    occupation
  Spin-up
    1    0       -10.051031      -273.5025     1.00000000
    2    0        -0.525597       -14.3022     1.00000000
    2    1        -0.212561        -5.7841     1.50000000
  Spin-down
    1    0       -10.035888      -273.0904     1.00000000
    2    0        -0.475307       -12.9338     1.00000000
    2    1        -0.167132        -4.5479     0.50000000


  Species: H
  Charge:   0.000000
  Moment:   1.000000

  List of occupied orbitals and eigenvalues:
    n    l      energy [Ha]    energy [eV]    occupation
  Spin-up
    1    0        -0.278991        -7.5917     1.00000000
  Spin-down
    1    0         0.090850         2.4721     0.00000000


  Adding cutoff potential to free-atom effective potential.
  Creating fixed part of basis set: Ionic, confined, hydrogenic.
 
  H                    hydrogenic:
 
  List of hydrogenic basis orbitals: 
    n    l      effective z      eigenvalue [eV]  inner max. [A]     outer max. [A]     outer radius [A]   
    2    0         2.100000       -14.9965           0.193243           1.317208           5.373006
    2    1         3.500000       -41.6672           0.602369           0.602369           4.056063
    1    0         0.850000        -9.8292           0.624871           0.624871           5.373006
    2    1         3.700000       -46.5653           0.573622           0.573622           3.910002
    2    0         1.200000        -4.5995           0.334980           2.228188           5.505995
    3    2         7.000000       -74.0753           0.680699           0.680699           3.769201
 
 
  C                    hydrogenic:
 
  List of hydrogenic basis orbitals: 
    n    l      effective z      eigenvalue [eV]  inner max. [A]     outer max. [A]     outer radius [A]   
    2    1         1.700000        -9.8152           1.245706           1.245706           5.401630
    3    2         6.000000       -54.4226           0.792453           0.792453           4.178599
    2    0         4.900000       -81.6681           0.082559           0.562749           3.353238
    4    3         9.800000       -81.6681           0.863254           0.863254           4.028125
    3    1         5.200000       -40.8774           0.305389           1.215618           4.898362
    3    0         4.300000       -27.9508           0.091041           1.610311           5.401630
    5    4        14.400000      -112.8510           0.917666           0.917666           3.883070
    3    2         6.200000       -58.1113           0.763917           0.763917           4.077671
 
 
  O                    hydrogenic:
 
  List of hydrogenic basis orbitals: 
    n    l      effective z      eigenvalue [eV]  inner max. [A]     outer max. [A]     outer radius [A]   
    2    1         1.800000       -11.0118           1.178562           1.178562           5.432602
    3    2         7.600000       -87.3182           0.624125           0.624125           3.541477
    3    0         6.400000       -61.9209           0.061167           1.081902           4.306578
    4    3        11.600000      -114.4238           0.731631           0.731631           3.585037
    3    1         6.200000       -58.1113           0.255680           1.030270           4.306578
    3    2         5.600000       -47.4081           0.847233           0.847233           4.413171
    5    4        17.600000      -168.5799           0.749740           0.749740           3.372465
    1    0         0.750000        -7.6499           0.705284           0.705284           5.366593
 
  Creating atomic-like basis functions for current effective potential.

  Species H                   :

  List of atomic basis orbitals and eigenvalues:
    n    l      energy [Ha]    energy [eV]    outer radius [A]
    1    0        -0.238386        -6.4868       5.373006


  Species C                   :

  List of atomic basis orbitals and eigenvalues:
    n    l      energy [Ha]    energy [eV]    outer radius [A]
    1    0       -10.049212      -273.4530       1.934409
    2    0        -0.504761       -13.7352       5.271162
    2    1        -0.193631        -5.2690       5.401630


  Species O                   :

  List of atomic basis orbitals and eigenvalues:
    n    l      energy [Ha]    energy [eV]    outer radius [A]
    1    0       -18.927378      -515.0401       1.415765
    2    0        -0.880539       -23.9607       5.048385
    2    1        -0.331811        -9.0290       5.301386

  Assembling full basis from fixed parts.
  | Species H :   atomic orbital   1 s accepted.
  | Species H :    hydro orbital   2 s accepted.
  | Species H :    hydro orbital   1 s accepted.
  | Species H :    hydro orbital   2 s accepted.
  | Species H :    hydro orbital   2 p accepted.
  | Species H :    hydro orbital   2 p accepted.
  | Species H :    hydro orbital   3 d accepted.
  | Species C :   atomic orbital   1 s accepted.
  | Species C :    hydro orbital   2 s accepted.
  | Species C :   atomic orbital   2 s accepted.
  | Species C :    hydro orbital   3 s accepted.
  | Species C :    hydro orbital   3 p accepted.
  | Species C :   atomic orbital   2 p accepted.
  | Species C :    hydro orbital   2 p accepted.
  | Species C :    hydro orbital   3 d accepted.
  | Species C :    hydro orbital   3 d accepted.
  | Species C :    hydro orbital   4 f accepted.
  | Species C :    hydro orbital   5 g accepted.
  | Species O :   atomic orbital   1 s accepted.
  | Species O :    hydro orbital   3 s accepted.
  | Species O :   atomic orbital   2 s accepted.
  | Species O :    hydro orbital   1 s accepted.
  | Species O :    hydro orbital   3 p accepted.
  | Species O :   atomic orbital   2 p accepted.
  | Species O :    hydro orbital   2 p accepted.
  | Species O :    hydro orbital   3 d accepted.
  | Species O :    hydro orbital   3 d accepted.
  | Species O :    hydro orbital   4 f accepted.
  | Species O :    hydro orbital   5 g accepted.
 
  Basis size parameters after reduction:
  | Total number of radial functions:       29
  | Total number of basis functions :      147
 
  Per-task memory consumption for arrays in subroutine allocate_ext:
  |           7.249324MB.
  Testing on-site integration grid accuracy.
  |  Species  Function  <phi|h_atom|phi> (log., in eV)  <phi|h_atom|phi> (rad., in eV)
           1        1                 -6.4870767962                 -6.4871688290
           1        2                 13.5032046589                 13.5028982997
           1        3                 32.8195184817                 32.8119941656
           1        4                 33.8513856511                 33.7670005767 ***
           1        5                 28.8544614965                 28.8544615203
           1        6                 59.6326952547                 59.6327656460
           1        7                 60.2719308513                 60.2719305949
           2        8               -273.4529725981               -273.4529710404
           2        9                -10.7721037329                -10.7721022112
           2       10                 17.6044132585                 17.6044162047
           2       11                 53.7706460564                 53.7706913676
           2       12                 15.0973290351                 15.0973256018
           2       13                  3.8545134677                  3.8545724672
           2       14                 12.1156992586                 12.1182024425
           2       15                 29.4352039288                 29.4352041803
           2       16                 54.8741144697                 54.8740268718
           2       17                 59.3556032036                 59.3556031368
           2       18                 93.4551837140                 93.4551837995
           3       19               -515.0401491148               -515.0401445421
           3       20                 15.1629302771                 15.1629233104
           3       21                -21.6127103295                -21.6127145442
           3       22                 14.4001435709                 14.4001765994
           3       23                 20.8862585187                 20.8862589493
           3       24                 -2.4803658578                 -2.4803665012
           3       25                 13.8586387760                 13.8586021622
           3       26                 45.8331828879                 45.8331828941
           3       27                 52.1851961049                 52.1851977023
           3       28                 85.4133898762                 85.4133899074
           3       29                142.1023296234                142.1023296272
 * Note: Onsite integrals marked "***" above are less accurate than
 * onsite_accuracy_threshold =    0.03000 eV. Usually, this is harmless.
 * When in doubt, tighten the "radial" and/or "radial_multiplier" flags to check.

  Preparing densities etc. for the partition functions (integrals / Hartree potential).

  Preparations completed.
  max(cpu_time)          :      0.283 s.
  Wall clock time (cpu1) :      0.280 s.
------------------------------------------------------------
  After prepare_scf [GB]:   1031.13

  Initializing index lists of integration centers etc. from given atomic structure:
  | Number of centers in hartree potential         :         5
  | Number of centers in hartree multipole         :         5
  | Number of centers in electron density summation:         5
  | Number of centers in basis integrals           :         5
  | Number of centers in integrals                 :         5
  | Number of centers in hamiltonian               :         5
  After initialize_bc_dependent_lists [GB]:   1031.13

------------------------------------------------------------
          Begin self-consistency loop: Initialization.

          Date     :  20250311, Time     :  161547.241
------------------------------------------------------------
  Available memory per node after initialize_hartree_non_periodic_ewald [GB]:   1031.13
  Available memory per node after initialize_recip_hartree_potential [GB]:   1031.13
  Available memory per node after initialize_scalapack [GB]:   1031.13
  Available memory per node after aims_elsi_init_scf [GB]:   1031.13
  Available memory per node after initialize_fixed_grids [GB]:   1031.13
  Partitioning the integration grid into batches with parallel hashing+maxmin method.
  | Number of batches:     1152
  | Maximal batch size:     198
  | Minimal batch size:      25
  | Average batch size:      75.741
  | Standard deviation of batch sizes:      20.166

  Integration load balanced across    32 MPI tasks.
  Work distribution over tasks is as follows:
  Task     0 has       2683 integration points.
  Task     1 has       2820 integration points.
  Task     2 has       2805 integration points.
  Task     3 has       2709 integration points.
  Task     4 has       2711 integration points.
  Task     5 has       2735 integration points.
  Task     6 has       2699 integration points.
  Task     7 has       2684 integration points.
  Task     8 has       2814 integration points.
  Task     9 has       2798 integration points.
  Task    10 has       2705 integration points.
  Task    11 has       2710 integration points.
  Task    12 has       2696 integration points.
  Task    13 has       2795 integration points.
  Task    14 has       2695 integration points.
  Task    15 has       2706 integration points.
  Task    16 has       2691 integration points.
  Task    17 has       2687 integration points.
  Task    18 has       2788 integration points.
  Task    19 has       2704 integration points.
  Task    20 has       2731 integration points.
  Task    21 has       2742 integration points.
  Task    22 has       2698 integration points.
  Task    23 has       2701 integration points.
  Task    24 has       2689 integration points.
  Task    25 has       2801 integration points.
  Task    26 has       2680 integration points.
  Task    27 has       2706 integration points.
  Task    28 has       2792 integration points.
  Task    29 has       2694 integration points.
  Task    30 has       2699 integration points.
  Task    31 has       2686 integration points.
  Available memory per node after partition_grid [GB]:   1031.13
  Initializing partition tables, free-atom densities, potentials, etc. across the integration grid (initialize_grid_storage).
  | initialize_grid_storage: Actual outermost partition radius vs. multipole_radius_free
  | (-- VB: in principle, multipole_radius_free should be larger, hence this output)
  | Species        1: Confinement radius =              6.000000000000000 AA, multipole_radius_free =              6.071692442739658 AA.
  | Species        1: outer_partition_radius set to              6.071692442739658 AA .
  | Species        2: Confinement radius =              6.000000000000000 AA, multipole_radius_free =              6.029870734432609 AA.
  | Species        2: outer_partition_radius set to              6.029870734432609 AA .
  | Species        3: Confinement radius =              6.000000000000000 AA, multipole_radius_free =              6.064445521808699 AA.
  | Species        3: outer_partition_radius set to              6.064445521808699 AA .
  | The sparse table of interatomic distances needs          0.26 kbyte instead of         0.20 kbyte of memory.
  | Using the partition_type stratmann_smoother will reduce your memory usage.
  | Net number of integration points:    87254
  | of which are non-zero points    :    76517
  Available memory per node after initialize_grid_storage_p1 [GB]:   1031.13
  Renormalizing the initial density to the exact electron count on the 3D integration grid.
  | Initial density: Formal number of electrons (from input files) :      24.0000000000
  | Integrated number of electrons on 3D grid     :      23.9999994110
  | Charge integration error                      :      -0.0000005890
  | Normalization factor for density and gradient :       1.0000000245
  Renormalizing the free-atom superposition density to the exact electron count on the 3D integration grid.
  | Formal number of electrons (from input files) :      23.0000000000
  | Integrated number of electrons on 3D grid     :      23.9999992269
  | Charge integration error                      :      -0.0000007731
  | Normalization factor for density and gradient :       1.0000000322
  Obtaining max. number of non-zero basis functions in each batch (get_n_compute_maxes).
  | Maximal number of non-zero basis functions:      147 in task     0
  | Maximal number of non-zero basis functions:      147 in task     1
  | Maximal number of non-zero basis functions:      147 in task     2
  | Maximal number of non-zero basis functions:      147 in task     3
  | Maximal number of non-zero basis functions:      147 in task     4
  | Maximal number of non-zero basis functions:      147 in task     5
  | Maximal number of non-zero basis functions:      147 in task     6
  | Maximal number of non-zero basis functions:      147 in task     7
  | Maximal number of non-zero basis functions:      147 in task     8
  | Maximal number of non-zero basis functions:      147 in task     9
  | Maximal number of non-zero basis functions:      147 in task    10
  | Maximal number of non-zero basis functions:      147 in task    11
  | Maximal number of non-zero basis functions:      147 in task    12
  | Maximal number of non-zero basis functions:      147 in task    13
  | Maximal number of non-zero basis functions:      147 in task    14
  | Maximal number of non-zero basis functions:      147 in task    15
  | Maximal number of non-zero basis functions:      147 in task    16
  | Maximal number of non-zero basis functions:      147 in task    17
  | Maximal number of non-zero basis functions:      147 in task    18
  | Maximal number of non-zero basis functions:      147 in task    19
  | Maximal number of non-zero basis functions:      147 in task    20
  | Maximal number of non-zero basis functions:      147 in task    21
  | Maximal number of non-zero basis functions:      147 in task    22
  | Maximal number of non-zero basis functions:      147 in task    23
  | Maximal number of non-zero basis functions:      147 in task    24
  | Maximal number of non-zero basis functions:      147 in task    25
  | Maximal number of non-zero basis functions:      147 in task    26
  | Maximal number of non-zero basis functions:      147 in task    27
  | Maximal number of non-zero basis functions:      147 in task    28
  | Maximal number of non-zero basis functions:      147 in task    29
  | Maximal number of non-zero basis functions:      147 in task    30
  | Maximal number of non-zero basis functions:      147 in task    31
  Selecting the method for density update.
  Loop over occupied states selected for charge density update.
  Available memory per node after get_n_compute_maxes_p1 [GB]:   1031.13
  Initialize hartree_potential_storage
  Max. number of atoms included in rho_multipole:            5

  Evaluating partitioned Hartree potential by multipole expansion.
  | Original multipole sum: apparent total charge =   0.128631E-13
  | Sum of charges compensated after spline to logarithmic grids =  -0.291218E-06
  | Analytical far-field extrapolation by fixed multipoles:
  | Hartree multipole sum: apparent total charge =   0.128646E-13
  Summing up the Hartree potential.
  Time summed over all CPUs for potential: real work        0.005 s, elapsed        0.005 s
  | RMS charge density error from multipole expansion :   0.199874E-03

  Allocating        0.054 MB for KS_eigenvector
  Available memory per node after allocate_matrices [GB]:   1031.13
  Available memory per node after init_comm_sparse_local_matrix_scalapack [GB]:   1031.13
  Integrating Hamiltonian matrix: batch-based integration.
  Time summed over all CPUs for integration: real work        1.332 s, elapsed        1.499 s
  Available memory per node after integrate hamiltonian matrix [GB]:   1031.13
  Integrating overlap matrix.
  Time summed over all CPUs for integration: real work        0.223 s, elapsed        0.241 s
  Available memory per node after integrate ovlp matrix [GB]:   1031.13
  Available memory per node after ASI_callbacks invoke [GB]:   1031.13
  Available memory per node after save_overlap_scalapack [GB]:   1031.13

  Updating Kohn-Sham eigenvalues and eigenvectors using ELSI and the (modified) LAPACK eigensolver.
  Overlap matrix is not singular
  | Lowest and highest eigenvalues :  0.1783E-03,  0.4459E+01
  Finished singularity check of overlap matrix
  | Time :     0.002 s
  Starting LAPACK eigensolver
  Finished Cholesky decomposition
  | Time :     0.000 s
  Finished transformation to standard eigenproblem
  | Time :     0.001 s
  Finished solving standard eigenproblem
  | Time :     0.001 s
  Finished back-transformation of eigenvectors
  | Time :     0.000 s
  Determining occupation numbers for Kohn-Sham eigenstates.
  | Chemical potential (Fermi level) in eV                 : -.88787267E+01
  | Error in electron count due to remaining E_F inaccuracy: 0.00000000E+00
  | Note that, for insulating systems, the printed 'chemical potential' value is not uniquely defined.
  | It can be anywhere in the energy gap, as long as it correctly separates occupied and unoccupied states.
  | In systems with a gap, the physically relevant chemical potential is the VBM or HOMO.
  | Maximum occupation number of highest empty state:  0.00E+00

  Available memory per node after advance_KS_solution [GB]:   1031.13
  Writing Kohn-Sham eigenvalues.

  Spin-up eigenvalues:

  State    Occupation    Eigenvalue [Ha]    Eigenvalue [eV]
      1       1.00000         -19.024088         -517.67178
      2       0.00000         -19.013654         -517.38784
      3       1.00000         -10.139768         -275.91714
      4       1.00000          -1.184223          -32.22436
      5       1.00000          -1.117192          -30.40035
      6       1.00000          -0.741586          -20.17958
      7       1.00000          -0.618828          -16.83916
      8       1.00000          -0.606065          -16.49186
      9       1.00000          -0.539191          -14.67212
     10       1.00000          -0.521441          -14.18912
     11       1.00000          -0.451729          -12.29217
     12       1.00000          -0.425960          -11.59097
     13       0.00000          -0.175166           -4.76651
     14       0.00000          -0.061606           -1.67638
     15       0.00000          -0.024474           -0.66598
     16       0.00000           0.031682            0.86211
     17       0.00000           0.052280            1.42262
     18       0.00000           0.086615            2.35693
     19       0.00000           0.095089            2.58750
     20       0.00000           0.127226            3.46199
     21       0.00000           0.132531            3.60636
     22       0.00000           0.158706            4.31860
     23       0.00000           0.176819            4.81148
     24       0.00000           0.212929            5.79410

  Spin-down eigenvalues:

  State    Occupation    Eigenvalue [Ha]    Eigenvalue [eV]
      1       1.00000         -19.000272         -517.02369
      2       1.00000         -18.990495         -516.75766
      3       1.00000         -10.123172         -275.46553
      4       1.00000          -1.112844          -30.28203
      5       1.00000          -1.040286          -28.30762
      6       1.00000          -0.641625          -17.45952
      7       1.00000          -0.545251          -14.83702
      8       1.00000          -0.523306          -14.23989
      9       1.00000          -0.477536          -12.99442
     10       1.00000          -0.427249          -11.62603
     11       1.00000          -0.386213          -10.50940
     12       1.00000          -0.342001           -9.30631
     13       0.00000          -0.111139           -3.02426
     14       0.00000          -0.001456           -0.03963
     15       0.00000           0.026988            0.73437
     16       0.00000           0.078441            2.13448
     17       0.00000           0.108448            2.95103
     18       0.00000           0.112934            3.07308
     19       0.00000           0.155552            4.23279
     20       0.00000           0.162753            4.42875
     21       0.00000           0.172660            4.69831
     22       0.00000           0.195706            5.32542
     23       0.00000           0.218319            5.94076
     24       0.00000           0.250081            6.80504

  Current spin moment of the entire structure :
  | N = N_up - N_down :    1.00
  | S                 :    0.50
  | J                 :    2.00

  Highest occupied state (VBM) at     -9.30631319 eV
  | Occupation number:      1.00000000
  | Spin channel:        2

  Lowest unoccupied state (CBM) at  -517.38783720 eV
  | Occupation number:      0.00000000
  | Spin channel:        1

  Overall HOMO-LUMO gap:   -508.08152401 eV.
  Calculating total energy contributions from superposition of free atom densities.

  Total energy components:
  | Sum of eigenvalues            :         -88.98032146 Ha       -2421.27774023 eV
  | XC energy correction          :         -22.93146121 Ha        -623.99680805 eV
  | XC potential correction       :          29.48615092 Ha         802.35899002 eV
  | Free-atom electrostatic energy:         -88.15759140 Ha       -2398.89011620 eV
  | Hartree energy correction     :          -0.22402827 Ha          -6.09611931 eV
  | Entropy correction            :           0.00000000 Ha           0.00000000 eV
  | ---------------------------
  | Total energy                  :        -170.80725142 Ha       -4647.90179377 eV
  | Total energy, T -> 0          :        -170.80725142 Ha       -4647.90179377 eV  <-- do not rely on this value for anything but (periodic) metals
  | Electronic free energy        :        -170.80725142 Ha       -4647.90179377 eV

  Derived energy quantities:
  | Kinetic energy                :         208.12627628 Ha        5663.40412842 eV
  | Electrostatic energy          :        -356.00206649 Ha       -9687.30911413 eV
  | Energy correction for multipole
  | error in Hartree potential    :          -0.00037382 Ha          -0.01017205 eV
  | Sum of eigenvalues per atom                           :        -484.25554805 eV
  | Total energy (T->0) per atom                          :        -929.58035875 eV  <-- do not rely on this value for anything but (periodic) metals
  | Electronic free energy per atom                       :        -929.58035875 eV

  End scf initialization - timings             :  max(cpu_time)    wall_clock(cpu1)
  | Time for scf. initialization                :        0.109 s           0.109 s
  | Boundary condition initialization           :        0.019 s           0.019 s
  | Integration                                 :        0.055 s           0.055 s
  | Solution of K.-S. eqns.                     :        0.007 s           0.007 s
  | Grid partitioning                           :        0.023 s           0.023 s
  | Preloading free-atom quantities on grid     :        0.021 s           0.020 s
  | Free-atom superposition energy              :        0.002 s           0.002 s
  | Total energy evaluation                     :        0.000 s           0.000 s

  Partial memory accounting:
  | Current value for overall tracked memory usage:
  |   Minimum:        0.304 MB (on task  0)
  |   Maximum:        0.304 MB (on task  0)
  |   Average:        0.304 MB
  | Peak value for overall tracked memory usage:
  |   Minimum:        4.247 MB (on task  0 after allocating zora_vector2)
  |   Maximum:        4.247 MB (on task  0 after allocating zora_vector2)
  |   Average:        4.247 MB
  | Largest tracked array allocation so far:
  |   Minimum:        1.332 MB (zora_vector1 on task  0)
  |   Maximum:        1.332 MB (zora_vector1 on task  0)
  |   Average:        1.332 MB
  Note:  These values currently only include a subset of arrays which are explicitly tracked.
  The "true" memory usage will be greater.
------------------------------------------------------------
  Available memory after initialize_scf [GB]:   1031.13
  Available memory after allocating mixing [GB]:   1031.13
  Evaluating new KS density.
  Integration grid: deviation in total charge (<rho> - N_e) =   7.105427E-15
  | <rho_up-rho_dn> = N_up-N_dn =     -1.0000; <|rho_up-rho_dn|> =      1.3483

  Time for density update prior                :  max(cpu_time)    wall_clock(cpu1)
  | self-consistency iterative process          :        0.013 s           0.012 s
  Available memory before start of SCF loop [GB]:   1031.13

------------------------------------------------------------
          Begin self-consistency iteration #    1

  Date     :  20250311, Time     :  161547.363
------------------------------------------------------------
  Pulay mixing of updated and previous charge densities.
  Available memory per node after mixing [GB]:   1031.13
  Renormalizing the density to the exact electron count on the 3D integration grid.
  | Formal number of electrons (from input files) :      23.0000000000
  | Integrated number of electrons on 3D grid     :      23.9499999993
  | Charge integration error                      :       0.9499999993
  | Normalization factor for density and gradient :       0.9603340293
  * The proposed renormalization factor deviates too far from 1.
  * Since the initial charge in geometry.in was not equal to the formal charge,
  * it is not yet safe to renormalize the charge. If this message persists
  * even in the final s.c.f. cycle, your integration accuracy may not be good enough.

  Evaluating partitioned Hartree potential by multipole expansion.
  | Original multipole sum: apparent total charge =   0.500000E-01
  | Sum of charges compensated after spline to logarithmic grids =   0.668926E-06
  | Analytical far-field extrapolation by fixed multipoles:
  | Hartree multipole sum: apparent total charge =   0.500000E-01
  Summing up the Hartree potential.
  Time summed over all CPUs for potential: real work        0.004 s, elapsed        0.004 s
  | RMS charge density error from multipole expansion :   0.425873E-03

  Integrating Hamiltonian matrix: batch-based integration.
  Time summed over all CPUs for integration: real work        1.284 s, elapsed        1.451 s

  Updating Kohn-Sham eigenvalues and eigenvectors using ELSI and the (modified) LAPACK eigensolver.
  Starting LAPACK eigensolver
  Finished Cholesky decomposition
  | Time :     0.000 s
  Finished transformation to standard eigenproblem
  | Time :     0.001 s
  Finished solving standard eigenproblem
  | Time :     0.001 s
  Finished back-transformation of eigenvectors
  | Time :     0.000 s
  Determining occupation numbers for Kohn-Sham eigenstates.
  | Chemical potential (Fermi level) in eV                 : -.93469234E+01
  | Error in electron count due to remaining E_F inaccuracy: 0.00000000E+00
  | Note that, for insulating systems, the printed 'chemical potential' value is not uniquely defined.
  | It can be anywhere in the energy gap, as long as it correctly separates occupied and unoccupied states.
  | In systems with a gap, the physically relevant chemical potential is the VBM or HOMO.
  | Maximum occupation number of highest empty state:  0.00E+00

  Writing Kohn-Sham eigenvalues.

  Spin-up eigenvalues:

  State    Occupation    Eigenvalue [Ha]    Eigenvalue [eV]
      1       0.00000         -19.174566         -521.76650
      2       1.00000         -19.010406         -517.29947
      3       1.00000         -10.154759         -276.32506
      4       1.00000          -1.207242          -32.85072
      5       1.00000          -1.127047          -30.66850
      6       1.00000          -0.748362          -20.36396
      7       1.00000          -0.641252          -17.44935
      8       1.00000          -0.620944          -16.89674
      9       1.00000          -0.559576          -15.22684
     10       1.00000          -0.526426          -14.32478
     11       1.00000          -0.462536          -12.58625
     12       1.00000          -0.452620          -12.31642
     13       0.00000          -0.191530           -5.21180
     14       0.00000          -0.069806           -1.89952
     15       0.00000          -0.033262           -0.90511
     16       0.00000           0.019568            0.53246
     17       0.00000           0.043409            1.18121
     18       0.00000           0.076680            2.08656
     19       0.00000           0.088310            2.40305
     20       0.00000           0.115958            3.15537
     21       0.00000           0.123189            3.35214
     22       0.00000           0.148534            4.04181
     23       0.00000           0.167993            4.57133
     24       0.00000           0.201564            5.48484

  Spin-down eigenvalues:

  State    Occupation    Eigenvalue [Ha]    Eigenvalue [eV]
      1       1.00000         -19.192191         -522.24608
      2       1.00000         -18.987840         -516.68542
      3       1.00000         -10.139120         -275.89948
      4       1.00000          -1.142333          -31.08445
      5       1.00000          -1.052501          -28.64002
      6       1.00000          -0.655152          -17.82760
      7       1.00000          -0.574456          -15.63175
      8       1.00000          -0.541954          -14.74731
      9       1.00000          -0.501848          -13.65598
     10       1.00000          -0.438499          -11.93217
     11       1.00000          -0.400118          -10.88777
     12       1.00000          -0.371866          -10.11900
     13       0.00000          -0.130511           -3.55138
     14       0.00000          -0.011992           -0.32631
     15       0.00000           0.016769            0.45631
     16       0.00000           0.065754            1.78926
     17       0.00000           0.097375            2.64970
     18       0.00000           0.100001            2.72116
     19       0.00000           0.143617            3.90802
     20       0.00000           0.151497            4.12246
     21       0.00000           0.161140            4.38484
     22       0.00000           0.185477            5.04709
     23       0.00000           0.204682            5.56967
     24       0.00000           0.237526            6.46342

  Current spin moment of the entire structure :
  | N = N_up - N_down :    1.00
  | S                 :    0.50
  | J                 :    2.00

  Highest occupied state (VBM) at    -10.11899840 eV
  | Occupation number:      1.00000000
  | Spin channel:        2

  Lowest unoccupied state (CBM) at  -521.76649928 eV
  | Occupation number:      0.00000000
  | Spin channel:        1

  Overall HOMO-LUMO gap:   -511.64750088 eV.

  Total energy components:
  | Sum of eigenvalues            :         -89.50904742 Ha       -2435.66510553 eV
  | XC energy correction          :         -22.80331721 Ha        -620.50983245 eV
  | XC potential correction       :          29.32078320 Ha         797.85910537 eV
  | Free-atom electrostatic energy:         -88.15759140 Ha       -2398.89011620 eV
  | Hartree energy correction     :           0.46870437 Ha          12.75409475 eV
  | Entropy correction            :           0.00000000 Ha           0.00000000 eV
  | ---------------------------
  | Total energy                  :        -170.68046847 Ha       -4644.45185405 eV
  | Total energy, T -> 0          :        -170.68046847 Ha       -4644.45185405 eV  <-- do not rely on this value for anything but (periodic) metals
  | Electronic free energy        :        -170.68046847 Ha       -4644.45185405 eV

  Derived energy quantities:
  | Kinetic energy                :         206.02297587 Ha        5606.17041223 eV
  | Electrostatic energy          :        -353.90012713 Ha       -9630.11243383 eV
  | Energy correction for multipole
  | error in Hartree potential    :          -0.00084370 Ha          -0.02295833 eV
  | Sum of eigenvalues per atom                           :        -487.13302111 eV
  | Total energy (T->0) per atom                          :        -928.89037081 eV  <-- do not rely on this value for anything but (periodic) metals
  | Electronic free energy per atom                       :        -928.89037081 eV
  Evaluating new KS density.
  Integration grid: deviation in total charge (<rho> - N_e) =   0.000000E+00
  | <rho_up-rho_dn> = N_up-N_dn =     -1.0000; <|rho_up-rho_dn|> =      1.3228

  Self-consistency convergence accuracy:
  | Change of charge/spin density :  0.4208E+01  0.4275E+01
  | Change of unmixed KS charge/spin density :  0.1183E+02  0.4204E+01
  | Change of sum of eigenvalues  : -0.1439E+02 eV
  | Change of total energy        :  0.3450E+01 eV


------------------------------------------------------------
  End self-consistency iteration #     1       :  max(cpu_time)    wall_clock(cpu1)
  | Time for this iteration                     :        0.069 s           0.070 s
  | Charge density update                       :        0.012 s           0.012 s
  | Density mixing                              :        0.000 s           0.001 s
  | Hartree multipole update                    :        0.001 s           0.001 s
  | Hartree multipole summation                 :        0.005 s           0.005 s
  | Integration                                 :        0.046 s           0.046 s
  | Solution of K.-S. eqns.                     :        0.005 s           0.004 s
  | Total energy evaluation                     :        0.000 s           0.000 s

  Partial memory accounting:
  | Current value for overall tracked memory usage:
  |   Minimum:        3.289 MB (on task 26)
  |   Maximum:        3.445 MB (on task  1)
  |   Average:        3.341 MB
  | Peak value for overall tracked memory usage:
  |   Minimum:        7.232 MB (on task 26 after allocating zora_vector2)
  |   Maximum:        7.388 MB (on task  1 after allocating zora_vector2)
  |   Average:        7.284 MB
  | Largest tracked array allocation so far:
  |   Minimum:        1.332 MB (zora_vector1 on task  0)
  |   Maximum:        1.332 MB (zora_vector1 on task  0)
  |   Average:        1.332 MB
  Note:  These values currently only include a subset of arrays which are explicitly tracked.
  The "true" memory usage will be greater.
------------------------------------------------------------

------------------------------------------------------------
          Begin self-consistency iteration #    2

  Date     :  20250311, Time     :  161547.433
------------------------------------------------------------
  Pulay mixing of updated and previous charge densities.
  Available memory per node after mixing [GB]:   1031.13
  Renormalizing the density to the exact electron count on the 3D integration grid.
  | Formal number of electrons (from input files) :      23.0000000000
  | Integrated number of electrons on 3D grid     :      23.0748643289
  | Charge integration error                      :       0.0748643289
  | Normalization factor for density and gradient :       0.9967555896
  * The proposed renormalization factor deviates too far from 1.
  * Since the initial charge in geometry.in was not equal to the formal charge,
  * it is not yet safe to renormalize the charge. If this message persists
  * even in the final s.c.f. cycle, your integration accuracy may not be good enough.

  Evaluating partitioned Hartree potential by multipole expansion.
  | Original multipole sum: apparent total charge =   0.925136E+00
  | Sum of charges compensated after spline to logarithmic grids =   0.174572E-04
  | Analytical far-field extrapolation by fixed multipoles:
  | Hartree multipole sum: apparent total charge =   0.925136E+00
  Summing up the Hartree potential.
  Time summed over all CPUs for potential: real work        0.004 s, elapsed        0.004 s
  | RMS charge density error from multipole expansion :   0.547400E-02

  Integrating Hamiltonian matrix: batch-based integration.
  Time summed over all CPUs for integration: real work        1.264 s, elapsed        1.420 s

  Updating Kohn-Sham eigenvalues and eigenvectors using ELSI and the (modified) LAPACK eigensolver.
  Starting LAPACK eigensolver
  Finished Cholesky decomposition
  | Time :     0.000 s
  Finished transformation to standard eigenproblem
  | Time :     0.001 s
  Finished solving standard eigenproblem
  | Time :     0.001 s
  Finished back-transformation of eigenvectors
  | Time :     0.000 s
  Determining occupation numbers for Kohn-Sham eigenstates.
  | Chemical potential (Fermi level) in eV                 : -.11844903E+02
  | Error in electron count due to remaining E_F inaccuracy: 0.00000000E+00
  | Note that, for insulating systems, the printed 'chemical potential' value is not uniquely defined.
  | It can be anywhere in the energy gap, as long as it correctly separates occupied and unoccupied states.
  | In systems with a gap, the physically relevant chemical potential is the VBM or HOMO.
  | Maximum occupation number of highest empty state:  0.00E+00

  Current spin moment of the entire structure :
  | N = N_up - N_down :    1.00
  | S                 :    0.50
  | J                 :    2.00

  Highest occupied state (VBM) at    -15.17834843 eV
  | Occupation number:      1.00000000
  | Spin channel:        2

  Lowest unoccupied state (CBM) at  -581.25648431 eV
  | Occupation number:      0.00000000
  | Spin channel:        1

  Overall HOMO-LUMO gap:   -566.07813589 eV.

  Checking to see if s.c.f. parameters should be adjusted.
  Adjusted the Pulay mixing parameter (charge_mix_param) for an expected low-gap system. New value:   0.020000 .
  Adjusted the occupation broadening width for an expected low-gap system. New value:      0.05000000 eV.

  Total energy components:
  | Sum of eigenvalues            :         -99.24493406 Ha       -2700.59206034 eV
  | XC energy correction          :         -21.18252440 Ha        -576.40581617 eV
  | XC potential correction       :          27.26081791 Ha         741.80459795 eV
  | Free-atom electrostatic energy:         -88.15759140 Ha       -2398.89011620 eV
  | Hartree energy correction     :          10.84847081 Ha         295.20191036 eV
  | Entropy correction            :           0.00000000 Ha           0.00000000 eV
  | ---------------------------
  | Total energy                  :        -170.47576114 Ha       -4638.88148441 eV
  | Total energy, T -> 0          :        -170.47576114 Ha       -4638.88148441 eV  <-- do not rely on this value for anything but (periodic) metals
  | Electronic free energy        :        -170.47576114 Ha       -4638.88148441 eV

  Derived energy quantities:
  | Kinetic energy                :         166.66258491 Ha        4535.11967985 eV
  | Electrostatic energy          :        -315.95582166 Ha       -8597.59534809 eV
  | Energy correction for multipole
  | error in Hartree potential    :          -0.00930416 Ha          -0.25317921 eV
  | Sum of eigenvalues per atom                           :        -540.11841207 eV
  | Total energy (T->0) per atom                          :        -927.77629688 eV  <-- do not rely on this value for anything but (periodic) metals
  | Electronic free energy per atom                       :        -927.77629688 eV
  Evaluating new KS density.
  Integration grid: deviation in total charge (<rho> - N_e) =   3.552714E-15
  | <rho_up-rho_dn> = N_up-N_dn =     -1.0000; <|rho_up-rho_dn|> =      1.2237

  Self-consistency convergence accuracy:
  | Change of charge/spin density :  0.3976E+01  0.4071E+01
  | Change of unmixed KS charge/spin density :  0.7244E-01  0.1181E-01
  | Change of sum of eigenvalues  : -0.2649E+03 eV
  | Change of total energy        :  0.5570E+01 eV


------------------------------------------------------------
  End self-consistency iteration #     2       :  max(cpu_time)    wall_clock(cpu1)
  | Time for this iteration                     :        0.068 s           0.068 s
  | Charge density update                       :        0.012 s           0.012 s
  | Density mixing                              :        0.001 s           0.001 s
  | Hartree multipole update                    :        0.001 s           0.001 s
  | Hartree multipole summation                 :        0.005 s           0.004 s
  | Integration                                 :        0.045 s           0.045 s
[...]

  Derived energy quantities:
  | Kinetic energy                :         168.16375982 Ha        4575.96872748 eV
  | Electrostatic energy          :        -316.71619733 Ha       -8618.28622282 eV
  | Energy correction for multipole
  | error in Hartree potential    :          -0.00783116 Ha          -0.21309659 eV
  | Sum of eigenvalues per atom                           :        -531.23353117 eV
  | Total energy (T->0) per atom                          :        -925.37168769 eV  <-- do not rely on this value for anything but (periodic) metals
  | Electronic free energy per atom                       :        -925.37168769 eV

  Self-consistency convergence accuracy:
  | Change of charge/spin density :  0.5093E-05  0.7939E-05
  | Change of unmixed KS charge/spin density :  0.3573E-06  0.9834E-07
  | Change of sum of eigenvalues  :  0.5007E-03 eV
  | Change of total energy        :  0.1640E-06 eV

  Writing Kohn-Sham eigenvalues.

  Spin-up eigenvalues:

  State    Occupation    Eigenvalue [Ha]    Eigenvalue [eV]
      1       0.00000         -20.431455         -555.96817
      2       1.00000         -19.169899         -521.63949
      3       1.00000         -10.408063         -283.21780
      4       1.00000          -1.439819          -39.17946
      5       1.00000          -1.307341          -35.57455
      6       1.00000          -0.927453          -25.23729
      7       1.00000          -0.855010          -23.26600
      8       1.00000          -0.819873          -22.30987
      9       1.00000          -0.796614          -21.67697
     10       1.00000          -0.687463          -18.70683
     11       1.00000          -0.667086          -18.15234
     12       1.00000          -0.650642          -17.70487
     13       0.00000          -0.409609          -11.14603
     14       0.00000          -0.235831           -6.41730
     15       0.00000          -0.187722           -5.10819
     16       0.00000          -0.168962           -4.59769
     17       0.00000          -0.130169           -3.54209
     18       0.00000          -0.097481           -2.65259
     19       0.00000          -0.054404           -1.48042
     20       0.00000          -0.045876           -1.24835
     21       0.00000          -0.034921           -0.95024
     22       0.00000          -0.013935           -0.37919
     23       0.00000           0.003672            0.09993
     24       0.00000           0.023705            0.64505

  Spin-down eigenvalues:

  State    Occupation    Eigenvalue [Ha]    Eigenvalue [eV]
      1       1.00000         -22.006820         -598.83604
      2       1.00000         -19.169255         -521.62197
      3       1.00000         -10.407102         -283.19164
      4       1.00000          -1.480880          -40.29680
      5       1.00000          -1.310146          -35.65088
      6       1.00000          -0.940104          -25.58153
      7       1.00000          -0.878488          -23.90486
      8       1.00000          -0.836035          -22.74966
      9       1.00000          -0.824720          -22.44177
     10       1.00000          -0.694352          -18.89429
     11       1.00000          -0.679871          -18.50024
     12       1.00000          -0.655332          -17.83249
     13       0.00000          -0.414660          -11.28349
     14       0.00000          -0.236998           -6.44904
     15       0.00000          -0.191136           -5.20107
     16       0.00000          -0.174401           -4.74569
     17       0.00000          -0.131201           -3.57016
     18       0.00000          -0.097206           -2.64510
     19       0.00000          -0.056736           -1.54387
     20       0.00000          -0.046183           -1.25670
     21       0.00000          -0.035578           -0.96812
     22       0.00000          -0.018994           -0.51684
     23       0.00000           0.002218            0.06037
     24       0.00000           0.021691            0.59025

  Current spin moment of the entire structure :
  | N = N_up - N_down :    1.00
  | S                 :    0.50
  | J                 :    2.00

  Highest occupied state (VBM) at    -17.70487348 eV
  | Occupation number:      1.00000000
  | Spin channel:        1

  Lowest unoccupied state (CBM) at  -555.96817007 eV
  | Occupation number:      0.00000000
  | Spin channel:        1

  Overall HOMO-LUMO gap:   -538.26329659 eV.

  | Chemical Potential                          :   -14.68502435 eV
  | Note that, for insulating systems, the printed 'chemical potential' value is not uniquely defined.
  | It can be anywhere in the energy gap, as long as it correctly separates occupied and unoccupied states.
  | In systems with a gap, the physically relevant chemical potential is the VBM or HOMO.

  Self-consistency cycle converged.


------------------------------------------------------------
  End self-consistency iteration #    33       :  max(cpu_time)    wall_clock(cpu1)
  | Time for this iteration                     :        0.060 s           0.060 s
  | Charge density update                       :        0.000 s           0.000 s
  | Density mixing                              :        0.001 s           0.001 s
  | Hartree multipole update                    :        0.001 s           0.001 s
  | Hartree multipole summation                 :        0.005 s           0.005 s
  | Integration                                 :        0.048 s           0.048 s
  | Solution of K.-S. eqns.                     :        0.005 s           0.005 s
  | Total energy evaluation                     :        0.000 s           0.000 s

  Partial memory accounting:
  | Current value for overall tracked memory usage:
  |   Minimum:        3.290 MB (on task 26)
  |   Maximum:        3.446 MB (on task  1)
  |   Average:        3.342 MB
  | Peak value for overall tracked memory usage:
  |   Minimum:        7.233 MB (on task 26 after allocating zora_vector2)
  |   Maximum:        7.389 MB (on task  1 after allocating zora_vector2)
  |   Average:        7.285 MB
  | Largest tracked array allocation so far:
  |   Minimum:        1.332 MB (zora_vector1 on task  0)
  |   Maximum:        1.332 MB (zora_vector1 on task  0)
  |   Average:        1.332 MB
  Note:  These values currently only include a subset of arrays which are explicitly tracked.
  The "true" memory usage will be greater.
------------------------------------------------------------

------------------------------------------------------------
          Post-processing: scaled ZORA corrections to eigenvalues and total energy.

  Date     :  20250311, Time     :  161549.673
------------------------------------------------------------
  Computing correction matrix for scaled ZORA eigenvalues.
  Evaluating scaled zora correction for each Kohn-Sham eigenstate.
  Determining occupation numbers for Kohn-Sham eigenstates.
  | Chemical potential (Fermi level) in eV                 : -.14803980E+02
  | Error in electron count due to remaining E_F inaccuracy: 0.00000000E+00
  | Note that, for insulating systems, the printed 'chemical potential' value is not uniquely defined.
  | It can be anywhere in the energy gap, as long as it correctly separates occupied and unoccupied states.
  | In systems with a gap, the physically relevant chemical potential is the VBM or HOMO.
  | Maximum occupation number of highest empty state:  0.00E+00

  Writing Kohn-Sham eigenvalues.

  Spin-up eigenvalues:

  State    Occupation    Eigenvalue [Ha]    Eigenvalue [eV]
      1       0.00000         -20.415295         -555.52845
      2       1.00000         -19.155045         -521.23529
      3       1.00000         -10.403645         -283.09758
      4       1.00000          -1.439701          -39.17627
      5       1.00000          -1.307242          -35.57187
      6       1.00000          -0.927398          -25.23578
      7       1.00000          -0.854945          -23.26425
      8       1.00000          -0.819824          -22.30855
      9       1.00000          -0.796561          -21.67553
     10       1.00000          -0.687421          -18.70567
     11       1.00000          -0.667037          -18.15100
     12       1.00000          -0.650599          -17.70369
     13       0.00000          -0.409583          -11.14533
     14       0.00000          -0.235824           -6.41709
     15       0.00000          -0.187716           -5.10801
     16       0.00000          -0.168955           -4.59751
     17       0.00000          -0.130164           -3.54193
     18       0.00000          -0.097479           -2.65255
     19       0.00000          -0.054402           -1.48037
     20       0.00000          -0.045875           -1.24833
     21       0.00000          -0.034920           -0.95022
     22       0.00000          -0.013934           -0.37918
     23       0.00000           0.003672            0.09993
     24       0.00000           0.023705            0.64504

  Spin-down eigenvalues:

  State    Occupation    Eigenvalue [Ha]    Eigenvalue [eV]
      1       1.00000         -21.988889         -598.34810
      2       1.00000         -19.154401         -521.21778
      3       1.00000         -10.402684         -283.07143
      4       1.00000          -1.480755          -40.29338
      5       1.00000          -1.310049          -35.64823
      6       1.00000          -0.940038          -25.57975
      7       1.00000          -0.878427          -23.90322
      8       1.00000          -0.835979          -22.74815
      9       1.00000          -0.824659          -22.44011
     10       1.00000          -0.694311          -18.89316
     11       1.00000          -0.679821          -18.49888
     12       1.00000          -0.655290          -17.83134
     13       0.00000          -0.414634          -11.28278
     14       0.00000          -0.236990           -6.44883
     15       0.00000          -0.191127           -5.20083
     16       0.00000          -0.174396           -4.74555
     17       0.00000          -0.131195           -3.57000
     18       0.00000          -0.097204           -2.64506
     19       0.00000          -0.056735           -1.54382
     20       0.00000          -0.046182           -1.25667
     21       0.00000          -0.035577           -0.96810
     22       0.00000          -0.018993           -0.51683
     23       0.00000           0.002218            0.06037
     24       0.00000           0.021691            0.59023

  Current spin moment of the entire structure :
  | N = N_up - N_down :    1.00
  | S                 :    0.50
  | J                 :    2.00

  Highest occupied state (VBM) at    -17.70368885 eV
  | Occupation number:      1.00000000
  | Spin channel:        1

  Lowest unoccupied state (CBM) at  -555.52845164 eV
  | Occupation number:      0.00000000
  | Spin channel:        1

  Overall HOMO-LUMO gap:   -537.82476280 eV.

  Total energy components:
  | Sum of eigenvalues            :         -97.55472015 Ha       -2654.59899988 eV
  | XC energy correction          :         -21.48148482 Ha        -584.54094311 eV
  | XC potential correction       :          27.65345295 Ha         752.48874088 eV
  | Free-atom electrostatic energy:         -88.15759140 Ha       -2398.89011620 eV
  | Hartree energy correction     :           9.56406815 Ha         260.25153582 eV
  | Entropy correction            :           0.00000000 Ha           0.00000000 eV
  | ---------------------------
  | Total energy                  :        -169.97627528 Ha       -4625.28978249 eV
  | Total energy, T -> 0          :        -169.97627528 Ha       -4625.28978249 eV  <-- do not rely on this value for anything but (periodic) metals
  | Electronic free energy        :        -169.97627528 Ha       -4625.28978249 eV

  Derived energy quantities:
  | Kinetic energy                :         168.22140687 Ha        4577.53738345 eV
  | Electrostatic energy          :        -316.71619733 Ha       -8618.28622282 eV
  | Energy correction for multipole
  | error in Hartree potential    :          -0.00783116 Ha          -0.21309659 eV
  | Sum of eigenvalues per atom                           :        -530.91979998 eV
  | Total energy (T->0) per atom                          :        -925.05795650 eV  <-- do not rely on this value for anything but (periodic) metals
  | Electronic free energy per atom                       :        -925.05795650 eV
  End evaluation of scaled ZORA corrections.
  | Time for scaled ZORA corrections            :        0.055 s           0.055 s
------------------------------------------------------------

  Energy and forces in a compact form:
  | Total energy uncorrected      :         -0.462528978248573E+04 eV
  | Total energy corrected        :         -0.462528978248573E+04 eV  <-- do not rely on this value for anything but (periodic) metals
  | Electronic free energy        :         -0.462528978248573E+04 eV

  ------------------------------------ 
  Start decomposition of the XC Energy 
  ------------------------------------ 
  X and C from original XC functional choice 
  Hartree-Fock Energy :          0.000000000 Ha              0.000000000 eV
  X Energy            :        -20.706377903 Ha           -563.449210711 eV
  C Energy            :         -0.775106919 Ha            -21.091732397 eV
  XC Energy w/o HF    :        -21.481484821 Ha           -584.540943108 eV
  Total XC Energy     :        -21.481484821 Ha           -584.540943108 eV
  ------------------------------------ 
  LDA X and C from self-consistent density 
  X Energy LDA        :        -18.871759838 Ha           -513.526713142 eV
  C Energy LDA        :         -1.518294439 Ha            -41.314893756 eV
  ------------------------------------ 
  End decomposition of the XC Energy 
  ------------------------------------ 

------------------------------------------------------------

------------------------------------------------------------------------------
  Final output of selected total energy values:

  The following output summarizes some interesting total energy values
  at the end of a run (AFTER all relaxation, molecular dynamics, etc.).

  | Total energy of the DFT / Hartree-Fock s.c.f. calculation      :          -4625.289782486 eV
  | Final zero-broadening corrected energy (caution - metals only) :          -4625.289782486 eV
  | For reference only, the value of 1 Hartree used in FHI-aims is :             27.211384500 eV

  Before relying on these values, please be sure to understand exactly which
  total energy value is referred to by a given number. Different objects may
  all carry the same name 'total energy'. Definitions:

  Total energy of the DFT / Hartree-Fock s.c.f. calculation:
  | Note that this energy does not include ANY quantities calculated after the
  | s.c.f. cycle, in particular not ANY RPA, MP2, etc. many-body perturbation terms.
  | Scalar relativistic effects have been included in the 'scaled ZORA' approximation.

  Final zero-broadening corrected energy:
  | For metallic systems only, a broadening of the occupation numbers at the Fermi
  | level can be extrapolated back to zero broadening by an electron-gas inspired
  | formula. For all systems that are not real metals, this value can be
  | meaningless and should be avoided.

------------------------------------------------------------------------------
  Methods described in the following list of references were used in this FHI-aims run.
  If you publish the results, please make sure to cite these reference if they apply.
  FHI-aims is an academic code, and for our developers (often, Ph.D. students
  and postdocs), scientific credit in the community is essential.
  Thank you for helping us!

  For any use of FHI-aims, please cite:

    Volker Blum, Ralf Gehrke, Felix Hanke, Paula Havu, Ville Havu,
    Xinguo Ren, Karsten Reuter, and Matthias Scheffler
    'Ab initio molecular simulations with numeric atom-centered orbitals'
    Computer Physics Communications 180, 2175-2196 (2009)
    http://doi.org/10.1016/j.cpc.2009.06.022


  The ELSI infrastructure was used in your run to solve the Kohn-Sham electronic structure.
  Please check out https://wordpress.elsi-interchange.org to learn more.
  If scalability is important for your project, please acknowledge ELSI by citing:

    V. W-z. Yu, F. Corsetti, A. Garcia, W. P. Huhn, M. Jacquelin, W. Jia,
    B. Lange, L. Lin, J. Lu, W. Mi, A. Seifitokaldani, A. Vazquez-Mayagoitia,
    C. Yang, H. Yang, and V. Blum
    'ELSI: A unified software interface for Kohn-Sham electronic structure solvers'
    Computer Physics Communications 222, 267-285 (2018).
    http://doi.org/10.1016/j.cpc.2017.09.007


  For the real-space grid partitioning and parallelization used in this calculation, please cite:

    Ville Havu, Volker Blum, Paula Havu, and Matthias Scheffler,
    'Efficient O(N) integration for all-electron electronic structure calculation'
    'using numerically tabulated basis functions'
    Journal of Computational Physics 228, 8367-8379 (2009).
    http://doi.org/10.1016/j.jcp.2009.08.008

  Of course, there are many other important community references, e.g., those cited in the
  above references. Our list is limited to references that describe implementations in the
  FHI-aims code. The reason is purely practical (length of this list) - please credit others as well.

------------------------------------------------------------
          Leaving FHI-aims.
          Date     :  20250311, Time     :  161549.740

          Computational steps:
          | Number of self-consistency cycles          :           33
          | Number of SCF (re)initializations          :            1

          Detailed time accounting                     :  max(cpu_time)    wall_clock(cpu1)
          | Total time                                  :        2.848 s           2.847 s
          | Preparation time                            :        0.283 s           0.280 s
          | Boundary condition initalization            :        0.019 s           0.019 s
          | Grid partitioning                           :        0.023 s           0.023 s
          | Preloading free-atom quantities on grid     :        0.021 s           0.020 s
          | Free-atom superposition energy              :        0.002 s           0.002 s
          | Total time for integrations                 :        1.585 s           1.583 s
          | Total time for solution of K.-S. equations  :        0.158 s           0.161 s
          | Total time for density update               :        0.399 s           0.399 s
          | Total time for mixing                       :        0.039 s           0.039 s
          | Total time for Hartree multipole update     :        0.035 s           0.036 s
          | Total time for Hartree multipole sum        :        0.159 s           0.160 s
          | Total time for total energy evaluation      :        0.003 s           0.002 s
          | Total time for scaled ZORA corrections      :        0.055 s           0.055 s

          Partial memory accounting:
          | Residual value for overall tracked memory usage across tasks:     0.000000 MB (should be 0.000000 MB)
          | Peak values for overall tracked memory usage:
          |   Minimum:        7.233 MB (on task 26 after allocating zora_vector2)
          |   Maximum:        7.389 MB (on task  1 after allocating zora_vector2)
          |   Average:        7.285 MB
          | Largest tracked array allocation:
          |   Minimum:        1.332 MB (zora_vector1 on task  0)
          |   Maximum:        1.332 MB (zora_vector1 on task  0)
          |   Average:        1.332 MB
          Note:  These values currently only include a subset of arrays which are explicitly tracked.
          The "true" memory usage will be greater.

          Have a nice day.
------------------------------------------------------------
