------------------------------------------------------------
          Invoking FHI-aims ...

          When using FHI-aims, please cite the following reference:

            Volker Blum, Ralf Gehrke, Felix Hanke, Paula Havu,
            Ville Havu, Xinguo Ren, Karsten Reuter, and Matthias Scheffler,
            'Ab Initio Molecular Simulations with Numeric Atom-Centered Orbitals',
            Computer Physics Communications 180, 2175-2196 (2009)

          In addition, many other developments in FHI-aims are likely important for
          your particular application. If so, please cite them. A partial list of references
          is written at the end of this file. Thank you for giving credit to the authors
          of these developments.

          For general information about FHI-aims please find us at

            https://fhi-aims.org

          Online tutorials can be found at

            https://fhi-aims-club.gitlab.io/tutorials/tutorials-overview/

          For any questions about FHI-aims, please visit our slack channel at

            https://fhi-aims.slack.com

          and our main development and support site at

            https://aims-git.rz-berlin.mpg.de .

          The latter site, in particular, has a wiki to collect information, as well
          as an issue tracker to log discussions, suggest improvements, and report issues
          or bugs. https://aims-git.rz-berlin.mpg.de is also the main development site
          of the project and all new and updated code versions can be obtained there.
          Please send an email to aims-coordinators@fhi-berlin.mpg.de and we will add
          you to these sites. They are for you and everyone is welcome there.

------------------------------------------------------------



  Date     :  20250311, Time     :  174730.933
  Time zero on CPU 1             :   0.419532000000000E+00  s.
  Internal wall clock time zero  :           510947250.933  s.

  FHI-aims created a unique identifier for this run for later identification
  aims_uuid : 0B069E8E-FB12-4BA6-A9ED-3543121102B9

  Build configuration of the current instance of FHI-aims
  -------------------------------------------------------
  FHI-aims version      : 240605
  Commit number         : b001b2e18
  CMake host system     : Linux-6.5.0-41-generic
  CMake version         : 3.22.1
  Fortran compiler      : /opt/intel/oneapi/mpi/2021.12/bin/mpiifort (IntelLLVM) version 2024.1.0
  Fortran compiler flags: -fc=ifx -O3 -ip -fp-model precise
  C compiler            : /opt/intel/oneapi/mpi/2021.12/bin/mpiicc (IntelLLVM) version 2024.1.0
  C compiler flags      : -cc=icx -O3 -ip -fp-model precise -std=gnu99
  C++ compiler          : /opt/intel/oneapi/mpi/2021.12/bin/mpiicpc (IntelLLVM) version 2024.1.0
  C++ compiler flags    : -cxx=icpx -O3 -ip -fp-model precise -std=c++11
  HIP compiler          :
  HIP compiler flags    :
  HIP GPU arch          :
  Using MPI
  Using ScaLAPACK
  Using LibXC
  Using i-PI
  Using RLSY
  Linking against: /opt/intel/oneapi/mkl/2024.1/lib/intel64/libmkl_intel_lp64.so
                   /opt/intel/oneapi/mkl/2024.1/lib/intel64/libmkl_sequential.so
                   /opt/intel/oneapi/mkl/2024.1/lib/intel64/libmkl_core.so
                   /opt/intel/oneapi/mkl/2024.1/lib/intel64/libmkl_blacs_intelmpi_lp64.so
                   /opt/intel/oneapi/mkl/2024.1/lib/intel64/libmkl_scalapack_lp64.so
                   /opt/intel/oneapi/mkl/2024.1/lib/intel64/libmkl_core.so

  Using       32 parallel tasks.
  Task        0 on host RSL-arvutus reporting.
  Task        1 on host RSL-arvutus reporting.
  Task        2 on host RSL-arvutus reporting.
  Task        3 on host RSL-arvutus reporting.
  Task        4 on host RSL-arvutus reporting.
  Task        5 on host RSL-arvutus reporting.
  Task        6 on host RSL-arvutus reporting.
  Task        7 on host RSL-arvutus reporting.
  Task        8 on host RSL-arvutus reporting.
  Task        9 on host RSL-arvutus reporting.
  Task       10 on host RSL-arvutus reporting.
  Task       11 on host RSL-arvutus reporting.
  Task       12 on host RSL-arvutus reporting.
  Task       13 on host RSL-arvutus reporting.
  Task       14 on host RSL-arvutus reporting.
  Task       15 on host RSL-arvutus reporting.
  Task       16 on host RSL-arvutus reporting.
  Task       17 on host RSL-arvutus reporting.
  Task       18 on host RSL-arvutus reporting.
  Task       19 on host RSL-arvutus reporting.
  Task       20 on host RSL-arvutus reporting.
  Task       21 on host RSL-arvutus reporting.
  Task       22 on host RSL-arvutus reporting.
  Task       23 on host RSL-arvutus reporting.
  Task       24 on host RSL-arvutus reporting.
  Task       25 on host RSL-arvutus reporting.
  Task       26 on host RSL-arvutus reporting.
  Task       27 on host RSL-arvutus reporting.
  Task       28 on host RSL-arvutus reporting.
  Task       29 on host RSL-arvutus reporting.
  Task       30 on host RSL-arvutus reporting.
  Task       31 on host RSL-arvutus reporting.

  Memory overcommitment is allowed on your operating system.

  Obtaining array dimensions for all initial allocations:
  
  -----------------------------------------------------------------------
  Parsing control.in (first pass over file, find array dimensions only).
  The contents of control.in will be repeated verbatim below
  unless switched off by setting 'verbatim_writeout .false.' .
  in the first line of control.in .
  -----------------------------------------------------------------------
  
  xc                 pbe
  relativistic       zora scalar 1.0e-12
  spin               collinear
  charge             1.0
  default_initial_moment  1.0
  KS_method          serial
  force_occupation_basis 1 1 atomic 1 0 0 0.0 5
  ################################################################################
  #
  #  FHI-aims code project
  #  Volker Blum, Fritz Haber Institute Berlin, 2009
  #
  #  Suggested "tight" defaults for C atom (to be pasted into control.in file)
  #
  ################################################################################
    species        C
  #     global species definitions
      nucleus             6
      mass                12.0107
  #
      l_hartree           6
  #
      cut_pot             4.0  2.0  1.0
      basis_dep_cutoff    1e-4
  #
      radial_base         34 7.0
      radial_multiplier   2
      angular_grids specified
        division   0.2187   50
        division   0.4416  110
        division   0.6335  194
        division   0.7727  302
        division   0.8772  434
  #      division   0.9334  590
  #      division   0.9924  770
  #      division   1.0230  974
  #      division   1.5020 1202
  #     outer_grid  974
        outer_grid  434
  ################################################################################
  #
  #  Definition of "minimal" basis
  #
  ################################################################################
  #     valence basis states
      valence      2  s   2.
      valence      2  p   2.
  #     ion occupancy
      ion_occ      2  s   1.
      ion_occ      2  p   1.
  ################################################################################
  #
  #  Suggested additional basis functions. For production calculations,
  #  uncomment them one after another (the most important basis functions are
  #  listed first).
  #
  #  Constructed for dimers: 1.0 A, 1.25 A, 1.5 A, 2.0 A, 3.0 A
  #
  ################################################################################
  #  "First tier" - improvements: -1214.57 meV to -155.61 meV
       hydro 2 p 1.7
       hydro 3 d 6
       hydro 2 s 4.9
  #  "Second tier" - improvements: -67.75 meV to -5.23 meV
       hydro 4 f 9.8
       hydro 3 p 5.2
       hydro 3 s 4.3
       hydro 5 g 14.4
       hydro 3 d 6.2
  #  "Third tier" - improvements: -2.43 meV to -0.60 meV
  #     hydro 2 p 5.6
  #     hydro 2 s 1.4
  #     hydro 3 d 4.9
  #     hydro 4 f 11.2
  #  "Fourth tier" - improvements: -0.39 meV to -0.18 meV
  #     hydro 2 p 2.1
  #     hydro 5 g 16.4
  #     hydro 4 d 13.2
  #     hydro 3 s 13.6
  #     hydro 4 f 17.6
  #  Further basis functions - improvements: -0.08 meV and below
  #     hydro 3 s 2
  #     hydro 3 p 6
  #     hydro 4 d 20
  ################################################################################
  #
  # For methods that use the localized form of the "resolution of identity" for
  # the two-electron Coulomb operator (RI_method LVL), particularly Hartree-Fock and
  # hybrid density functional calculations, the highest accuracy can be obtained by
  # uncommenting the line beginning with "for_aux"  below, thus adding an extra g radial
  # function to the construction of the product basis set for the expansion.
  # See Ref. New J. Phys. 17, 093020 (2015) for more information, particularly Figs. 1 and 6.
  #
  ################################################################################
  #
  # for_aux hydro 5 g 6.0
  ################################################################################
  #
  #  FHI-aims code project
  #  Volker Blum, Fritz Haber Institute Berlin, 2009
  #
  #  Suggested "tight" defaults for O atom (to be pasted into control.in file)
  #
  ################################################################################
    species        O
  #     global species definitions
      nucleus             8
      mass                15.9994
  #
      l_hartree           6
  #
      cut_pot             4.0  2.0  1.0
      basis_dep_cutoff    1e-4
  #
      radial_base         36 7.0
      radial_multiplier   2
       angular_grids specified
        division   0.1817   50
        division   0.3417  110
        division   0.4949  194
        division   0.6251  302
        division   0.8014  434
  #      division   0.8507  590
  #      division   0.8762  770
  #      division   0.9023  974
  #      division   1.2339 1202
  #      outer_grid 974
        outer_grid  434
  ################################################################################
  #
  #  Definition of "minimal" basis
  #
  ################################################################################
  #     valence basis states
      valence      2  s   2.
      valence      2  p   4.
  #     ion occupancy
      ion_occ      2  s   1.
      ion_occ      2  p   3.
  ################################################################################
  #
  #  Suggested additional basis functions. For production calculations,
  #  uncomment them one after another (the most important basis functions are
  #  listed first).
  #
  #  Constructed for dimers: 1.0 A, 1.208 A, 1.5 A, 2.0 A, 3.0 A
  #
  ################################################################################
  #  "First tier" - improvements: -699.05 meV to -159.38 meV
       hydro 2 p 1.8
       hydro 3 d 7.6
       hydro 3 s 6.4
  #  "Second tier" - improvements: -49.91 meV to -5.39 meV
       hydro 4 f 11.6
       hydro 3 p 6.2
       hydro 3 d 5.6
       hydro 5 g 17.6
       hydro 1 s 0.75
  #  "Third tier" - improvements: -2.83 meV to -0.50 meV
  #     ionic 2 p auto
  #     hydro 4 f 10.8
  #     hydro 4 d 4.7
  #     hydro 2 s 6.8
  #  "Fourth tier" - improvements: -0.40 meV to -0.12 meV
  #     hydro 3 p 5
  #     hydro 3 s 3.3
  #     hydro 5 g 15.6
  #     hydro 4 f 17.6
  #     hydro 4 d 14
  # Further basis functions - -0.08 meV and below
  #     hydro 3 s 2.1
  #     hydro 4 d 11.6
  #     hydro 3 p 16
  #     hydro 2 s 17.2
  ################################################################################
  #
  # For methods that use the localized form of the "resolution of identity" for
  # the two-electron Coulomb operator (RI_method LVL), particularly Hartree-Fock and
  # hybrid density functional calculations, the highest accuracy can be obtained by
  # uncommenting the line beginning with "for_aux"  below, thus adding an extra g radial
  # function to the construction of the product basis set for the expansion.
  # See Ref. New J. Phys. 17, 093020 (2015) for more information, particularly Figs. 1 and 6.
  #
  ################################################################################
  #
  # for_aux hydro 5 g 6.0
  ################################################################################
  #
  #  FHI-aims code project
  #  Volker Blum, Fritz Haber Institute Berlin, 2009
  #
  #  Suggested "tight" defaults for H atom (to be pasted into control.in file)
  #
  ################################################################################
    species        H
  #     global species definitions
      nucleus             1
      mass                1.00794
  #
      l_hartree           6
  #
      cut_pot             4.0  2.0  1.0
      basis_dep_cutoff    1e-4
  #
      radial_base         24 7.0
      radial_multiplier   2
      angular_grids       specified
        division   0.1930   50
        division   0.3175  110
        division   0.4293  194
        division   0.5066  302
        division   0.5626  434
  #      division   0.5922  590
  #      division   0.6227  974
  #      division   0.6868 1202
  #      outer_grid  770
        outer_grid  434
  ################################################################################
  #
  #  Definition of "minimal" basis
  #
  ################################################################################
  #     valence basis states
      valence      1  s   1.
  #     ion occupancy
      ion_occ      1  s   0.5
  ################################################################################
  #
  #  Suggested additional basis functions. For production calculations,
  #  uncomment them one after another (the most important basis functions are
  #  listed first).
  #
  #  Basis constructed for dimers: 0.5 A, 0.7 A, 1.0 A, 1.5 A, 2.5 A
  #
  ################################################################################
  #  "First tier" - improvements: -1014.90 meV to -62.69 meV
       hydro 2 s 2.1
       hydro 2 p 3.5
  #  "Second tier" - improvements: -12.89 meV to -1.83 meV
       hydro 1 s 0.85
       hydro 2 p 3.7
       hydro 2 s 1.2
       hydro 3 d 7
  #  "Third tier" - improvements: -0.25 meV to -0.12 meV
  #     hydro 4 f 11.2
  #     hydro 3 p 4.8
  #     hydro 4 d 9
  #     hydro 3 s 3.2
  ################################################################################
  #
  # For methods that use the localized form of the "resolution of identity" for
  # the two-electron Coulomb operator (RI_method LVL), particularly Hartree-Fock and
  # hybrid density functional calculations, the highest accuracy can be obtained by
  # uncommenting the line beginning with "for_aux"  below, thus adding an extra g radial
  # function to the construction of the product basis set for the expansion.
  # See Ref. New J. Phys. 17, 093020 (2015) for more information, particularly Figs. 1 and 6.
  #
  ################################################################################
  #
  # for_aux hydro 5 g 6.0
  
  -----------------------------------------------------------------------
  Completed first pass over input file control.in .
  -----------------------------------------------------------------------
  
  
  -----------------------------------------------------------------------
  Parsing geometry.in (first pass over file, find array dimensions only).
  The contents of geometry.in will be repeated verbatim below
  unless switched off by setting 'verbatim_writeout .false.' .
  in the first line of geometry.in .
  -----------------------------------------------------------------------
  
  #
  # This is the geometry file that corresponds to the current relaxation step.
  # If you do not want this file to be written, set the "write_restart_geometry" flag to .false.
  #  aims_uuid : C88F6054-7F16-44AD-A59F-9AC0EC3E9577
  #
  atom       0.60190007     -0.00002556     -0.00001049 O
  atom      -0.60558209      0.00005563      0.00000141 C
  atom      -1.19815154      0.24652322     -0.91440848 H
  atom      -1.19816643     -0.24635329      0.91441755 H
  #
  # What follows is the current estimated Hessian matrix constructed by the BFGS algorithm.
  # This is NOT the true Hessian matrix of the system.
  # If you do not want this information here, switch it off using the "hessian_to_restart_geometry" keyword.
  #
  trust_radius             0.0206499112
  hessian_file
  
  -----------------------------------------------------------------------
  Completed first pass over input file geometry.in .
  -----------------------------------------------------------------------
  

  Basic array size parameters:
  | Number of species                 :        3
  | Number of atoms                   :        4
  | Max. basis fn. angular momentum   :        4
  | Max. atomic/ionic basis occupied n:        2
  | Max. number of basis fn. types    :        2
  | Max. radial fns per species/type  :        8
  | Max. logarithmic grid size        :     1301
  | Max. radial integration grid size :       73
  | Max. angular integration grid size:      434
  | Max. angular grid division number :        8
  | Radial grid for Hartree potential :     1301
  | Number of spin channels           :        2

------------------------------------------------------------
          Reading file control.in.
------------------------------------------------------------
  XC: Using PBE gradient-corrected functionals.
  Scalar relativistic treatment of kinetic energy: ZORA.
  Threshold value for ZORA:   0.100000E-11
  Spin treatment: Spin density functional theory - collinear spins.
  Charged system requested: Charge =   0.100000E+01.
  Initial spin moment per atom:   1.0000
  Kohn-Sham eigenvalues and eigenfunctions calculated by LAPACK via ELSI.
  Occupation forced using basis function selection
    selected atom:     1
    selected spin channel:   1
    selected basis function - n l m:     1    0    0
    maximum number KS state for forcing occupation:        5
 
  Reading configuration options for species C                   .
  | Found nuclear charge :   6.0000
  | Found atomic mass :    12.0107000000000      amu
  | Found l_max for Hartree potential  :   6
  | Found cutoff potl. onset [A], width [A], scale factor :    4.00000    2.00000    1.00000
  | Threshold for basis-dependent cutoff potential is   0.100000E-03
  | Found data for basic radial integration grid :    34 points, outermost radius =    7.000 A
  | Found multiplier for basic radial grid :   2
  | Found angular grid specification: user-specified.
  | Specified grid contains     6 separate shells.
  | Check grid settings after all constraints further below.
  | Found free-atom valence shell :  2 s   2.000
  | Found free-atom valence shell :  2 p   2.000
  | No ionic wave fns used. Skipping ion_occ.
  | No ionic wave fns used. Skipping ion_occ.
  | Found hydrogenic basis function :  2 p   1.700
  | Found hydrogenic basis function :  3 d   6.000
  | Found hydrogenic basis function :  2 s   4.900
  | Found hydrogenic basis function :  4 f   9.800
  | Found hydrogenic basis function :  3 p   5.200
  | Found hydrogenic basis function :  3 s   4.300
  | Found hydrogenic basis function :  5 g  14.400
  | Found hydrogenic basis function :  3 d   6.200
 | Encountered keyword species, ending the description of species C                   .
  Species C                   : Missing cutoff potential type.
  Defaulting to exp(1/x)/(1-x)^2 type cutoff potential.
  Species C : No 'logarithmic' tag. Using default grid for free atom:
  | Default logarithmic grid data [bohr] : 0.1000E-03 0.1000E+03 0.1012E+01
  Species C : On-site basis accuracy parameter (for Gram-Schmidt orthonormalisation) not specified.
  Using default value basis_acc =  0.1000000E-03.
  Species C                   : Using default innermost maximum threshold i_radial=  2 for radial functions.
  Species C                   : Default cutoff onset for free atom density etc. : 0.40000000E+01 AA.
  Species C                   : Basic radial grid will be enhanced according to radial_multiplier =   2, to contain    69 grid points.
 
  Reading configuration options for species O                   .
  | Found nuclear charge :   8.0000
  | Found atomic mass :    15.9994000000000      amu
  | Found l_max for Hartree potential  :   6
  | Found cutoff potl. onset [A], width [A], scale factor :    4.00000    2.00000    1.00000
  | Threshold for basis-dependent cutoff potential is   0.100000E-03
  | Found data for basic radial integration grid :    36 points, outermost radius =    7.000 A
  | Found multiplier for basic radial grid :   2
  | Found angular grid specification: user-specified.
  | Specified grid contains     6 separate shells.
  | Check grid settings after all constraints further below.
  | Found free-atom valence shell :  2 s   2.000
  | Found free-atom valence shell :  2 p   4.000
  | No ionic wave fns used. Skipping ion_occ.
  | No ionic wave fns used. Skipping ion_occ.
  | Found hydrogenic basis function :  2 p   1.800
  | Found hydrogenic basis function :  3 d   7.600
  | Found hydrogenic basis function :  3 s   6.400
  | Found hydrogenic basis function :  4 f  11.600
  | Found hydrogenic basis function :  3 p   6.200
  | Found hydrogenic basis function :  3 d   5.600
  | Found hydrogenic basis function :  5 g  17.600
  | Found hydrogenic basis function :  1 s   0.750
 | Encountered keyword species, ending the description of species O                   .
  Species O                   : Missing cutoff potential type.
  Defaulting to exp(1/x)/(1-x)^2 type cutoff potential.
  Species O : No 'logarithmic' tag. Using default grid for free atom:
  | Default logarithmic grid data [bohr] : 0.1000E-03 0.1000E+03 0.1012E+01
  Species O : On-site basis accuracy parameter (for Gram-Schmidt orthonormalisation) not specified.
  Using default value basis_acc =  0.1000000E-03.
  Species O                   : Using default innermost maximum threshold i_radial=  2 for radial functions.
  Species O                   : Default cutoff onset for free atom density etc. : 0.40000000E+01 AA.
  Species O                   : Basic radial grid will be enhanced according to radial_multiplier =   2, to contain    73 grid points.
 
  Reading configuration options for species H                   .
  | Found nuclear charge :   1.0000
  | Found atomic mass :    1.00794000000000      amu
  | Found l_max for Hartree potential  :   6
  | Found cutoff potl. onset [A], width [A], scale factor :    4.00000    2.00000    1.00000
  | Threshold for basis-dependent cutoff potential is   0.100000E-03
  | Found data for basic radial integration grid :    24 points, outermost radius =    7.000 A
  | Found multiplier for basic radial grid :   2
  | Found angular grid specification: user-specified.
  | Specified grid contains     6 separate shells.
  | Check grid settings after all constraints further below.
  | Found free-atom valence shell :  1 s   1.000
  | No ionic wave fns used. Skipping ion_occ.
  | Found hydrogenic basis function :  2 s   2.100
  | Found hydrogenic basis function :  2 p   3.500
  | Found hydrogenic basis function :  1 s   0.850
  | Found hydrogenic basis function :  2 p   3.700
  | Found hydrogenic basis function :  2 s   1.200
  | Found hydrogenic basis function :  3 d   7.000
  Species H                   : Missing cutoff potential type.
  Defaulting to exp(1/x)/(1-x)^2 type cutoff potential.
  Species H : No 'logarithmic' tag. Using default grid for free atom:
  | Default logarithmic grid data [bohr] : 0.1000E-03 0.1000E+03 0.1012E+01
  Species H : On-site basis accuracy parameter (for Gram-Schmidt orthonormalisation) not specified.
  Using default value basis_acc =  0.1000000E-03.
  Species H                   : Using default innermost maximum threshold i_radial=  2 for radial functions.
  Species H                   : Default cutoff onset for free atom density etc. : 0.40000000E+01 AA.
  Species H                   : Basic radial grid will be enhanced according to radial_multiplier =   2, to contain    49 grid points.
 
  Finished reading input file 'control.in'.
 
------------------------------------------------------------


------------------------------------------------------------
          Reading geometry description geometry.in.
------------------------------------------------------------
  Found keyword 'hessian_file', indicating that this is the continuation of a structure optimization.
  However, the control.in file does not request the geometry to be optimized.
  Ignoring the request for a file 'hessian.aims' to be present.
  | The smallest distance between any two atoms is         1.11715275 AA.
  | The first atom of this pair is atom number                      2 .
  | The second atom of this pair is atom number                     3 .
  Input structure read successfully.
  The structure contains        4 atoms,  and a total of         15.000 electrons.

  Input geometry:
  | No unit cell requested.
  | Atomic structure:
  |       Atom                x [A]            y [A]            z [A]
  |    1: Species O             0.60190007       -0.00002556       -0.00001049
  |    2: Species C            -0.60558209        0.00005563        0.00000141
  |    3: Species H            -1.19815154        0.24652322       -0.91440848
  |    4: Species H            -1.19816643       -0.24635329        0.91441755

  Initial moments and charges:
  |  Atom   Moment         Charge        Species
  |     1   0.100000E+01   0.000000E+00   O
  |     2   0.100000E+01   0.000000E+00   C
  |     3   0.100000E+01   0.000000E+00   H
  |     4   0.100000E+01   0.000000E+00   H

  Slab Identifier: This is not a periodic structure.
 
  Finished reading input file 'geometry.in'.
 

 
  Consistency checks for stacksize environment parameter are next.
 
  | Maximum stacksize for task 0: unlimited
  | Maximum stacksize for task 1: unlimited
  | Maximum stacksize for task 2: unlimited
  | Maximum stacksize for task 3: unlimited
  | Maximum stacksize for task 4: unlimited
  | Maximum stacksize for task 5: unlimited
  | Maximum stacksize for task 6: unlimited
  | Maximum stacksize for task 7: unlimited
  | Maximum stacksize for task 8: unlimited
  | Maximum stacksize for task 9: unlimited
  | Maximum stacksize for task 10: unlimited
  | Maximum stacksize for task 11: unlimited
  | Maximum stacksize for task 12: unlimited
  | Maximum stacksize for task 13: unlimited
  | Maximum stacksize for task 14: unlimited
  | Maximum stacksize for task 15: unlimited
  | Maximum stacksize for task 16: unlimited
  | Maximum stacksize for task 17: unlimited
  | Maximum stacksize for task 18: unlimited
  | Maximum stacksize for task 19: unlimited
  | Maximum stacksize for task 20: unlimited
  | Maximum stacksize for task 21: unlimited
  | Maximum stacksize for task 22: unlimited
  | Maximum stacksize for task 23: unlimited
  | Maximum stacksize for task 24: unlimited
  | Maximum stacksize for task 25: unlimited
  | Maximum stacksize for task 26: unlimited
  | Maximum stacksize for task 27: unlimited
  | Maximum stacksize for task 28: unlimited
  | Maximum stacksize for task 29: unlimited
  | Maximum stacksize for task 30: unlimited
  | Maximum stacksize for task 31: unlimited
  | Current stacksize for task 0: unlimited
  | Current stacksize for task 1: unlimited
  | Current stacksize for task 2: unlimited
  | Current stacksize for task 3: unlimited
  | Current stacksize for task 4: unlimited
  | Current stacksize for task 5: unlimited
  | Current stacksize for task 6: unlimited
  | Current stacksize for task 7: unlimited
  | Current stacksize for task 8: unlimited
  | Current stacksize for task 9: unlimited
  | Current stacksize for task 10: unlimited
  | Current stacksize for task 11: unlimited
  | Current stacksize for task 12: unlimited
  | Current stacksize for task 13: unlimited
  | Current stacksize for task 14: unlimited
  | Current stacksize for task 15: unlimited
  | Current stacksize for task 16: unlimited
  | Current stacksize for task 17: unlimited
  | Current stacksize for task 18: unlimited
  | Current stacksize for task 19: unlimited
  | Current stacksize for task 20: unlimited
  | Current stacksize for task 21: unlimited
  | Current stacksize for task 22: unlimited
  | Current stacksize for task 23: unlimited
  | Current stacksize for task 24: unlimited
  | Current stacksize for task 25: unlimited
  | Current stacksize for task 26: unlimited
  | Current stacksize for task 27: unlimited
  | Current stacksize for task 28: unlimited
  | Current stacksize for task 29: unlimited
  | Current stacksize for task 30: unlimited
  | Current stacksize for task 31: unlimited
 
  Consistency checks for the contents of control.in are next.
 
  *** WARNING: The force_occupation functionality has been replaced with new deltascf_basis ***
  *** and deltascf_projector and will be removed in an upcoming release ***
  MPI_IN_PLACE appears to work with this MPI implementation.
  | Keeping use_mpi_in_place .true. (see manual).
  Target number of points in a grid batch is not set. Defaulting to  100
  Method for grid partitioning is not set. Defaulting to parallel hash+maxmin partitioning.
  Batch size limit is not set. Defaulting to    200
  By default, will store active basis functions for each batch.
  If in need of memory, prune_basis_once .false. can be used to disable this option.
  communication_type for Hartree potential was not specified.
  Defaulting to calc_hartree .
  Defaulting to Pulay charge density mixer.
  Pulay mixer: Number of relevant iterations not set.
  Defaulting to    8 iterations.
  Pulay mixer: Number of initial linear mixing iterations not set.
  Defaulting to    0 iterations.
  Work space size for distributed Hartree potential not set.
  Defaulting to   0.200000E+03 MB.
  Mixing parameter for charge density mixing has not been set.
  Using default: charge_mix_param =     0.0500.
  The mixing parameter will be adjusted in iteration number     2 of each s.c.f. cycle (i.e., each geometry step).
  Mixing parameter for spin density mixing has not been set.
  Using charge_mix_param as default:     0.0500.
  Algorithm-dependent basis array size parameters:
  | n_max_pulay                         :        8
  Maximum number of self-consistency iterations not provided.
  Presetting  1000 iterations.
  Presetting      1001 iterations before the initial mixing cycle
  is restarted anyway using the sc_init_iter criterion / keyword.
  Presetting a factor      1.000 between actual scf density residual
  and density convergence criterion sc_accuracy_rho below which sc_init_iter
  takes no effect.
 * No s.c.f. convergence criteria (sc_accuracy_*) were provided in control.in.
 * The run will proceed with a reasonable default guess, but please check whether.
 * the s.c.f. cycles seem to take too much or too little time.
  Calculation of forces was not defined in control.in. No forces will be calculated.
  Geometry relaxation not requested: no relaxation will be performed.
 * Notice: The s.c.f. convergence criterion sc_accuracy_rho was not provided.
 * We used to stop in this case, and ask the user to provide reasonable
 * scf convergence criteria. However, this led some users to employ criteria
 * that led to extremely long run times, e.g., for simple relaxation.
 * We now preset a default value for sc_accuracy_rho if it is not set.
 * You may still wish to check if this setting is too tight or too loose for your needs.
 * Based on n_atoms and forces and force-correction status, FHI-aims chose sc_accuracy_rho =  0.800000E-05 .
  No accuracy limit for integral partition fn. given. Defaulting to  0.1000E-14.
  No threshold value for u(r) in integrations given. Defaulting to  0.1000E-05.
  No occupation type (smearing scheme) given. Defaulting to Gaussian broadening, width =  0.1000E-01 eV.
  The width will be adjusted in iteration number     2 of each s.c.f. cycle (i.e., each geometry step).
  No accuracy for occupation numbers given. Defaulting to  0.1000E-07.
  No threshold value for occupation numbers given. Defaulting to  0.0000E+00.
  No accuracy for fermi level given. Defaulting to  0.1000E-19.
  Maximum # of iterations to find E_F not set. Defaulting to  200.
  Will not use alltoall communication since running on < 1024 CPUs.
  Threshold for basis singularities not set.
  Default threshold for basis singularities:  0.1000E-04
  partition_type (choice of integration weights) for integrals was not specified.
  | Using a version of the partition function of Stratmann and coworkers ('stratmann_sparse').
  | At each grid point, the set of atoms used to build the partition table is smoothly restricted to
  | only those atoms whose free-atom density would be non-zero at that grid point.
  Partitioning for Hartree potential was not defined. Using partition_type for integrals.
  | Adjusted default value of keyword multip_moments_threshold to:       0.10000000E-11
  | This value may affect high angular momentum components of the Hartree potential in periodic systems.
  No q(lm)/r^(l+1) cutoff set for long-range Hartree potential.
  | Using default value of  0.100000E-09 .
  | Verify using the multipole_threshold keyword.
  Defaulting to new monopole extrapolation.
  Density update method: automatic selection selected.
  Charge integration errors on the 3D integration grid will be compensated
  by explicit normalization and distribution of residual charges.
  Use the "compensate_multipole_errors" flag to change this behaviour.
  Set 'collect_eigenvectors' to be '.true.' for all serial calculations. This is mandatory.
  Set 'collect_eigenvectors' to be '.true.' for use_density_matrix .false.
  Set 'collect_eigenvectors' to be '.true.' for KS_method lapack_fast and serial.
  Found potential conflicts with setting 'use_local_index' for this calculation. Will not set it.
 
  Consistency checks for the contents of geometry.in are next.
 
 * Warning: Initial charge and total charge of the system are inconsistent.
 * Selected charge in control.in:     1.0000* Sum of initial charges in geometry.in:     0.0000
  Number of empty states per atom not set in control.in - providing a guess from actual geometry.
  | Total number of empty states used during s.c.f. cycle:        9
  If you use a very high smearing, use empty_states (per atom!) in control.in to increase this value.

  Structure-dependent array size parameters: 
  | Number of distinct atom types in initial rho :        3
  | Maximum number of distinct radial functions  :       29
  | Maximum number of basis functions            :      108
  | Number of Kohn-Sham states (occupied + empty):       17
------------------------------------------------------------
  After read_input_data [GB]:   1032.23

  Performing system and environment tests:
  *** Environment variable OMP_NUM_THREADS is not set
  *** For performance reasons you might want to set it to 1
  | Checking for ScaLAPACK...
  | Testing pdtran()...
  | All pdtran() tests passed.
  After prepare_system [GB]:   1032.09

------------------------------------------------------------
          Preparing all fixed parts of the calculation.
------------------------------------------------------------
  Determining machine precision:
    2.225073858507201E-308
  Setting up grids for atomic and cluster calculations.

  Creating wave function, potential, and density for free atoms.
  Runtime choices for atomic solver:
  | atomic solver xc        : PBE
  | compute density gradient: 1
  | compute kinetic density : F

  Species: C

  List of occupied orbitals and eigenvalues:
    n    l              occ      energy [Ha]    energy [eV]
    1    0           2.0000       -10.049212      -273.4530
    2    0           2.0000        -0.504761       -13.7352
    2    1           2.0000        -0.193631        -5.2690


  Species: O

  List of occupied orbitals and eigenvalues:
    n    l              occ      energy [Ha]    energy [eV]
    1    0           2.0000       -18.927378      -515.0401
    2    0           2.0000        -0.880539       -23.9607
    2    1           4.0000        -0.331811        -9.0290


  Species: H

  List of occupied orbitals and eigenvalues:
    n    l              occ      energy [Ha]    energy [eV]
    1    0           1.0000        -0.238386        -6.4868

  Spin-polarized or charged system:
  Charge density initialized according to selected moments and charges.

  Creating spin-polarized density from free atoms.

  Species: O
  Charge:   0.000000
  Moment:   1.000000

  List of occupied orbitals and eigenvalues:
    n    l      energy [Ha]    energy [eV]    occupation
  Spin-up
    1    0       -18.934229      -515.2266     1.00000000
    2    0        -0.906872       -24.6772     1.00000000
    2    1        -0.356742        -9.7074     2.50000000
  Spin-down
    1    0       -18.911454      -514.6069     1.00000000
    2    0        -0.847558       -23.0632     1.00000000
    2    1        -0.301004        -8.1907     1.50000000


  Species: C
  Charge:   0.000000
  Moment:   1.000000

  List of occupied orbitals and eigenvalues:
    n    l      energy [Ha]    energy [eV]    occupation
  Spin-up
    1    0       -10.051031      -273.5025     1.00000000
    2    0        -0.525597       -14.3022     1.00000000
    2    1        -0.212561        -5.7841     1.50000000
  Spin-down
    1    0       -10.035888      -273.0904     1.00000000
    2    0        -0.475307       -12.9338     1.00000000
    2    1        -0.167132        -4.5479     0.50000000


  Species: H
  Charge:   0.000000
  Moment:   1.000000

  List of occupied orbitals and eigenvalues:
    n    l      energy [Ha]    energy [eV]    occupation
  Spin-up
    1    0        -0.278991        -7.5917     1.00000000
  Spin-down
    1    0         0.090850         2.4721     0.00000000


  Adding cutoff potential to free-atom effective potential.
  Creating fixed part of basis set: Ionic, confined, hydrogenic.
 
  C                    hydrogenic:
 
  List of hydrogenic basis orbitals: 
    n    l      effective z      eigenvalue [eV]  inner max. [A]     outer max. [A]     outer radius [A]   
    2    1         1.700000        -9.8152           1.245706           1.245706           5.401630
    3    2         6.000000       -54.4226           0.792453           0.792453           4.178599
    2    0         4.900000       -81.6681           0.082559           0.562749           3.353238
    4    3         9.800000       -81.6681           0.863254           0.863254           4.028125
    3    1         5.200000       -40.8774           0.305389           1.215618           4.898362
    3    0         4.300000       -27.9508           0.091041           1.610311           5.401630
    5    4        14.400000      -112.8510           0.917666           0.917666           3.883070
    3    2         6.200000       -58.1113           0.763917           0.763917           4.077671
 
 
  O                    hydrogenic:
 
  List of hydrogenic basis orbitals: 
    n    l      effective z      eigenvalue [eV]  inner max. [A]     outer max. [A]     outer radius [A]   
    2    1         1.800000       -11.0118           1.178562           1.178562           5.432602
    3    2         7.600000       -87.3182           0.624125           0.624125           3.541477
    3    0         6.400000       -61.9209           0.061167           1.081902           4.306578
    4    3        11.600000      -114.4238           0.731631           0.731631           3.585037
    3    1         6.200000       -58.1113           0.255680           1.030270           4.306578
    3    2         5.600000       -47.4081           0.847233           0.847233           4.413171
    5    4        17.600000      -168.5799           0.749740           0.749740           3.372465
    1    0         0.750000        -7.6499           0.705284           0.705284           5.366593
 
 
  H                    hydrogenic:
 
  List of hydrogenic basis orbitals: 
    n    l      effective z      eigenvalue [eV]  inner max. [A]     outer max. [A]     outer radius [A]   
    2    0         2.100000       -14.9965           0.193243           1.317208           5.373006
    2    1         3.500000       -41.6672           0.602369           0.602369           4.056063
    1    0         0.850000        -9.8292           0.624871           0.624871           5.373006
    2    1         3.700000       -46.5653           0.573622           0.573622           3.910002
    2    0         1.200000        -4.5995           0.334980           2.228188           5.505995
    3    2         7.000000       -74.0753           0.680699           0.680699           3.769201
 
  Creating atomic-like basis functions for current effective potential.

  Species C                   :

  List of atomic basis orbitals and eigenvalues:
    n    l      energy [Ha]    energy [eV]    outer radius [A]
    1    0       -10.049212      -273.4530       1.934409
    2    0        -0.504761       -13.7352       5.271162
    2    1        -0.193631        -5.2690       5.401630


  Species O                   :

  List of atomic basis orbitals and eigenvalues:
    n    l      energy [Ha]    energy [eV]    outer radius [A]
    1    0       -18.927378      -515.0401       1.415765
    2    0        -0.880539       -23.9607       5.048385
    2    1        -0.331811        -9.0290       5.301386


  Species H                   :

  List of atomic basis orbitals and eigenvalues:
    n    l      energy [Ha]    energy [eV]    outer radius [A]
    1    0        -0.238386        -6.4868       5.373006

  Assembling full basis from fixed parts.
  | Species C :   atomic orbital   1 s accepted.
  | Species C :    hydro orbital   2 s accepted.
  | Species C :   atomic orbital   2 s accepted.
  | Species C :    hydro orbital   3 s accepted.
  | Species C :    hydro orbital   3 p accepted.
  | Species C :   atomic orbital   2 p accepted.
  | Species C :    hydro orbital   2 p accepted.
  | Species C :    hydro orbital   3 d accepted.
  | Species C :    hydro orbital   3 d accepted.
  | Species C :    hydro orbital   4 f accepted.
  | Species C :    hydro orbital   5 g accepted.
  | Species O :   atomic orbital   1 s accepted.
  | Species O :    hydro orbital   3 s accepted.
  | Species O :   atomic orbital   2 s accepted.
  | Species O :    hydro orbital   1 s accepted.
  | Species O :    hydro orbital   3 p accepted.
  | Species O :   atomic orbital   2 p accepted.
  | Species O :    hydro orbital   2 p accepted.
  | Species O :    hydro orbital   3 d accepted.
  | Species O :    hydro orbital   3 d accepted.
  | Species O :    hydro orbital   4 f accepted.
  | Species O :    hydro orbital   5 g accepted.
  | Species H :   atomic orbital   1 s accepted.
  | Species H :    hydro orbital   2 s accepted.
  | Species H :    hydro orbital   1 s accepted.
  | Species H :    hydro orbital   2 s accepted.
  | Species H :    hydro orbital   2 p accepted.
  | Species H :    hydro orbital   2 p accepted.
  | Species H :    hydro orbital   3 d accepted.
 
  Basis size parameters after reduction:
  | Total number of radial functions:       29
  | Total number of basis functions :      108
 
  Per-task memory consumption for arrays in subroutine allocate_ext:
  |           7.248420MB.
  Testing on-site integration grid accuracy.
  |  Species  Function  <phi|h_atom|phi> (log., in eV)  <phi|h_atom|phi> (rad., in eV)
           1        1               -273.4529725981               -273.4529710404
           1        2                -10.7721037329                -10.7721022112
           1        3                 17.6044132585                 17.6044162047
           1        4                 53.7706460564                 53.7706913676
           1        5                 15.0973290351                 15.0973256018
           1        6                  3.8545134677                  3.8545724672
           1        7                 12.1156992586                 12.1182024425
           1        8                 29.4352039288                 29.4352041803
           1        9                 54.8741144697                 54.8740268718
           1       10                 59.3556032036                 59.3556031368
           1       11                 93.4551837140                 93.4551837995
           2       12               -515.0401491148               -515.0401445421
           2       13                 15.1629302771                 15.1629233104
           2       14                -21.6127103295                -21.6127145442
           2       15                 14.4001435709                 14.4001765994
           2       16                 20.8862585187                 20.8862589493
           2       17                 -2.4803658578                 -2.4803665012
           2       18                 13.8586387760                 13.8586021622
           2       19                 45.8331828879                 45.8331828941
           2       20                 52.1851961049                 52.1851977023
           2       21                 85.4133898762                 85.4133899074
           2       22                142.1023296234                142.1023296272
           3       23                 -6.4870767962                 -6.4871688290
           3       24                 13.5032046589                 13.5028982997
           3       25                 32.8195184817                 32.8119941656
           3       26                 33.8513856511                 33.7670005767 ***
           3       27                 28.8544614965                 28.8544615203
           3       28                 59.6326952547                 59.6327656460
           3       29                 60.2719308513                 60.2719305949
 * Note: Onsite integrals marked "***" above are less accurate than
 * onsite_accuracy_threshold =    0.03000 eV. Usually, this is harmless.
 * When in doubt, tighten the "radial" and/or "radial_multiplier" flags to check.

  Preparing densities etc. for the partition functions (integrals / Hartree potential).

  Preparations completed.
  max(cpu_time)          :      0.289 s.
  Wall clock time (cpu1) :      0.285 s.
------------------------------------------------------------
  After prepare_scf [GB]:   1030.37

  Initializing index lists of integration centers etc. from given atomic structure:
  | Number of centers in hartree potential         :         4
  | Number of centers in hartree multipole         :         4
  | Number of centers in electron density summation:         4
  | Number of centers in basis integrals           :         4
  | Number of centers in integrals                 :         4
  | Number of centers in hamiltonian               :         4
  After initialize_bc_dependent_lists [GB]:   1030.37

------------------------------------------------------------
          Begin self-consistency loop: Initialization.

          Date     :  20250311, Time     :  174731.287
------------------------------------------------------------
  Available memory per node after initialize_hartree_non_periodic_ewald [GB]:   1030.37
  Available memory per node after initialize_recip_hartree_potential [GB]:   1030.37
  Available memory per node after initialize_scalapack [GB]:   1030.37
  Available memory per node after aims_elsi_init_scf [GB]:   1030.37
  Available memory per node after initialize_fixed_grids [GB]:   1030.37
  Partitioning the integration grid into batches with parallel hashing+maxmin method.
  | Number of batches:      962
  | Maximal batch size:     198
  | Minimal batch size:      22
  | Average batch size:      69.767
  | Standard deviation of batch sizes:      20.052

  Integration load balanced across    32 MPI tasks.
  Work distribution over tasks is as follows:
  Task     0 has       2079 integration points.
  Task     1 has       2089 integration points.
  Task     2 has       2225 integration points.
  Task     3 has       2087 integration points.
  Task     4 has       2157 integration points.
  Task     5 has       2069 integration points.
  Task     6 has       2071 integration points.
  Task     7 has       2093 integration points.
  Task     8 has       2076 integration points.
  Task     9 has       2056 integration points.
  Task    10 has       2048 integration points.
  Task    11 has       2050 integration points.
  Task    12 has       2084 integration points.
  Task    13 has       2086 integration points.
  Task    14 has       2053 integration points.
  Task    15 has       2082 integration points.
  Task    16 has       2069 integration points.
  Task    17 has       2050 integration points.
  Task    18 has       2153 integration points.
  Task    19 has       2063 integration points.
  Task    20 has       2185 integration points.
  Task    21 has       2070 integration points.
  Task    22 has       2073 integration points.
  Task    23 has       2195 integration points.
  Task    24 has       2140 integration points.
  Task    25 has       2080 integration points.
  Task    26 has       2144 integration points.
  Task    27 has       2089 integration points.
  Task    28 has       2050 integration points.
  Task    29 has       2149 integration points.
  Task    30 has       2146 integration points.
  Task    31 has       2055 integration points.
  Available memory per node after partition_grid [GB]:   1030.37
  Initializing partition tables, free-atom densities, potentials, etc. across the integration grid (initialize_grid_storage).
  | initialize_grid_storage: Actual outermost partition radius vs. multipole_radius_free
  | (-- VB: in principle, multipole_radius_free should be larger, hence this output)
  | Species        1: Confinement radius =              6.000000000000000 AA, multipole_radius_free =              6.029870734432609 AA.
  | Species        1: outer_partition_radius set to              6.029870734432609 AA .
  | Species        2: Confinement radius =              6.000000000000000 AA, multipole_radius_free =              6.064445521808699 AA.
  | Species        2: outer_partition_radius set to              6.064445521808699 AA .
  | Species        3: Confinement radius =              6.000000000000000 AA, multipole_radius_free =              6.071692442739658 AA.
  | Species        3: outer_partition_radius set to              6.071692442739658 AA .
  | The sparse table of interatomic distances needs          0.16 kbyte instead of         0.13 kbyte of memory.
  | Using the partition_type stratmann_smoother will reduce your memory usage.
  | Net number of integration points:    67116
  | of which are non-zero points    :    59851
  Available memory per node after initialize_grid_storage_p1 [GB]:   1030.37
  Renormalizing the initial density to the exact electron count on the 3D integration grid.
  | Initial density: Formal number of electrons (from input files) :      16.0000000000
  | Integrated number of electrons on 3D grid     :      15.9999992827
  | Charge integration error                      :      -0.0000007173
  | Normalization factor for density and gradient :       1.0000000448
  Renormalizing the free-atom superposition density to the exact electron count on the 3D integration grid.
  | Formal number of electrons (from input files) :      15.0000000000
  | Integrated number of electrons on 3D grid     :      15.9999990717
  | Charge integration error                      :      -0.0000009283
  | Normalization factor for density and gradient :       1.0000000580
  Obtaining max. number of non-zero basis functions in each batch (get_n_compute_maxes).
  | Maximal number of non-zero basis functions:      108 in task     0
  | Maximal number of non-zero basis functions:      108 in task     1
  | Maximal number of non-zero basis functions:      108 in task     2
  | Maximal number of non-zero basis functions:      108 in task     3
  | Maximal number of non-zero basis functions:      108 in task     4
  | Maximal number of non-zero basis functions:      108 in task     5
  | Maximal number of non-zero basis functions:      108 in task     6
  | Maximal number of non-zero basis functions:      108 in task     7
  | Maximal number of non-zero basis functions:      108 in task     8
  | Maximal number of non-zero basis functions:      108 in task     9
  | Maximal number of non-zero basis functions:      108 in task    10
  | Maximal number of non-zero basis functions:      108 in task    11
  | Maximal number of non-zero basis functions:      108 in task    12
  | Maximal number of non-zero basis functions:      108 in task    13
  | Maximal number of non-zero basis functions:      108 in task    14
  | Maximal number of non-zero basis functions:      108 in task    15
  | Maximal number of non-zero basis functions:      108 in task    16
  | Maximal number of non-zero basis functions:      108 in task    17
  | Maximal number of non-zero basis functions:      108 in task    18
  | Maximal number of non-zero basis functions:      108 in task    19
  | Maximal number of non-zero basis functions:      108 in task    20
  | Maximal number of non-zero basis functions:      108 in task    21
  | Maximal number of non-zero basis functions:      108 in task    22
  | Maximal number of non-zero basis functions:      108 in task    23
  | Maximal number of non-zero basis functions:      108 in task    24
  | Maximal number of non-zero basis functions:      108 in task    25
  | Maximal number of non-zero basis functions:      108 in task    26
  | Maximal number of non-zero basis functions:      108 in task    27
  | Maximal number of non-zero basis functions:      108 in task    28
  | Maximal number of non-zero basis functions:      108 in task    29
  | Maximal number of non-zero basis functions:      108 in task    30
  | Maximal number of non-zero basis functions:      108 in task    31
  Selecting the method for density update.
  Loop over occupied states selected for charge density update.
  Available memory per node after get_n_compute_maxes_p1 [GB]:   1030.37
  Initialize hartree_potential_storage
  Max. number of atoms included in rho_multipole:            4

  Evaluating partitioned Hartree potential by multipole expansion.
  | Original multipole sum: apparent total charge =  -0.614482E-14
  | Sum of charges compensated after spline to logarithmic grids =  -0.260037E-06
  | Analytical far-field extrapolation by fixed multipoles:
  | Hartree multipole sum: apparent total charge =  -0.615558E-14
  Summing up the Hartree potential.
  Time summed over all CPUs for potential: real work        0.004 s, elapsed        0.004 s
  | RMS charge density error from multipole expansion :   0.206931E-03

  Allocating        0.028 MB for KS_eigenvector
  Available memory per node after allocate_matrices [GB]:   1030.37
  Available memory per node after init_comm_sparse_local_matrix_scalapack [GB]:   1030.37
  Integrating Hamiltonian matrix: batch-based integration.
  Time summed over all CPUs for integration: real work        0.713 s, elapsed        0.801 s
  Available memory per node after integrate hamiltonian matrix [GB]:   1030.37
  Integrating overlap matrix.
  Time summed over all CPUs for integration: real work        0.125 s, elapsed        0.134 s
  Available memory per node after integrate ovlp matrix [GB]:   1030.37
  Available memory per node after ASI_callbacks invoke [GB]:   1030.37
  Available memory per node after save_overlap_scalapack [GB]:   1030.37

  Updating Kohn-Sham eigenvalues and eigenvectors using ELSI and the (modified) LAPACK eigensolver.
  Overlap matrix is not singular
  | Lowest and highest eigenvalues :  0.2121E-03,  0.3756E+01
  Finished singularity check of overlap matrix
  | Time :     0.001 s
  Starting LAPACK eigensolver
  Finished Cholesky decomposition
  | Time :     0.000 s
  Finished transformation to standard eigenproblem
  | Time :     0.000 s
  Finished solving standard eigenproblem
  | Time :     0.001 s
  Finished back-transformation of eigenvectors
  | Time :     0.000 s
  Determining occupation numbers for Kohn-Sham eigenstates.
  | Chemical potential (Fermi level) in eV                 : -.64156162E+01
  | Error in electron count due to remaining E_F inaccuracy: 0.00000000E+00
  | Note that, for insulating systems, the printed 'chemical potential' value is not uniquely defined.
  | It can be anywhere in the energy gap, as long as it correctly separates occupied and unoccupied states.
  | In systems with a gap, the physically relevant chemical potential is the VBM or HOMO.
  | Maximum occupation number of highest empty state:  0.00E+00

  Available memory per node after advance_KS_solution [GB]:   1030.37
  Writing Kohn-Sham eigenvalues.

  Spin-up eigenvalues:

  State    Occupation    Eigenvalue [Ha]    Eigenvalue [eV]
      1       0.00000         -19.013504         -517.38377
      2       1.00000         -10.143657         -276.02294
      3       1.00000          -1.161164          -31.59688
      4       1.00000          -0.722402          -19.65756
      5       1.00000          -0.598597          -16.28866
      6       1.00000          -0.580033          -15.78349
      7       1.00000          -0.512169          -13.93682
      8       1.00000          -0.397594          -10.81907
      9       0.00000          -0.218078           -5.93420
     10       0.00000          -0.043447           -1.18225
     11       0.00000          -0.002072           -0.05639
     12       0.00000           0.022883            0.62268
     13       0.00000           0.064972            1.76798
     14       0.00000           0.093438            2.54257
     15       0.00000           0.113158            3.07919
     16       0.00000           0.141966            3.86310
     17       0.00000           0.178165            4.84812

  Spin-down eigenvalues:

  State    Occupation    Eigenvalue [Ha]    Eigenvalue [eV]
      1       1.00000         -18.990334         -516.75329
      2       1.00000         -10.126315         -275.55105
      3       1.00000          -1.092867          -29.73842
      4       1.00000          -0.616412          -16.77343
      5       1.00000          -0.497163          -13.52851
      6       1.00000          -0.496359          -13.50661
      7       1.00000          -0.450748          -12.26549
      8       1.00000          -0.285821           -7.77758
      9       0.00000          -0.151838           -4.13172
     10       0.00000           0.011380            0.30967
     11       0.00000           0.045677            1.24292
     12       0.00000           0.063384            1.72477
     13       0.00000           0.117912            3.20855
     14       0.00000           0.154895            4.21490
     15       0.00000           0.171281            4.66078
     16       0.00000           0.177925            4.84157
     17       0.00000           0.226058            6.15134

  Current spin moment of the entire structure :
  | N = N_up - N_down :    1.00
  | S                 :    0.50
  | J                 :    2.00

  Highest occupied state (VBM) at     -7.77758130 eV
  | Occupation number:      1.00000000
  | Spin channel:        2

  Lowest unoccupied state (CBM) at  -517.38376879 eV
  | Occupation number:      0.00000000
  | Spin channel:        1

  Overall HOMO-LUMO gap:   -509.60618749 eV.
  Calculating total energy contributions from superposition of free atom densities.

  Total energy components:
  | Sum of eigenvalues            :         -46.67163449 Ha       -1269.99979133 eV
  | XC energy correction          :         -14.42745443 Ha        -392.59100986 eV
  | XC potential correction       :          18.54439313 Ha         504.61861171 eV
  | Free-atom electrostatic energy:         -52.75122540 Ha       -1435.43387727 eV
  | Hartree energy correction     :          -0.16227733 Ha          -4.41579089 eV
  | Entropy correction            :           0.00000000 Ha           0.00000000 eV
  | ---------------------------
  | Total energy                  :         -95.46819853 Ha       -2597.82185765 eV
  | Total energy, T -> 0          :         -95.46819853 Ha       -2597.82185765 eV  <-- do not rely on this value for anything but (periodic) metals
  | Electronic free energy        :         -95.46819853 Ha       -2597.82185765 eV

  Derived energy quantities:
  | Kinetic energy                :         132.95138564 Ha        3617.79127434 eV
  | Electrostatic energy          :        -213.99212973 Ha       -5823.02212212 eV
  | Energy correction for multipole
  | error in Hartree potential    :          -0.00031876 Ha          -0.00867380 eV
  | Sum of eigenvalues per atom                           :        -317.49994783 eV
  | Total energy (T->0) per atom                          :        -649.45546441 eV  <-- do not rely on this value for anything but (periodic) metals
  | Electronic free energy per atom                       :        -649.45546441 eV

  End scf initialization - timings             :  max(cpu_time)    wall_clock(cpu1)
  | Time for scf. initialization                :        0.071 s           0.071 s
  | Boundary condition initialization           :        0.018 s           0.018 s
  | Integration                                 :        0.030 s           0.030 s
  | Solution of K.-S. eqns.                     :        0.004 s           0.004 s
  | Grid partitioning                           :        0.016 s           0.017 s
  | Preloading free-atom quantities on grid     :        0.018 s           0.018 s
  | Free-atom superposition energy              :        0.002 s           0.001 s
  | Total energy evaluation                     :        0.000 s           0.001 s

  Partial memory accounting:
  | Current value for overall tracked memory usage:
  |   Minimum:        0.164 MB (on task  0)
  |   Maximum:        0.164 MB (on task  0)
  |   Average:        0.164 MB
  | Peak value for overall tracked memory usage:
  |   Minimum:        3.029 MB (on task  0 after allocating zora_vector2)
  |   Maximum:        3.029 MB (on task  0 after allocating zora_vector2)
  |   Average:        3.029 MB
  | Largest tracked array allocation so far:
  |   Minimum:        0.979 MB (zora_vector1 on task  0)
  |   Maximum:        0.979 MB (zora_vector1 on task  0)
  |   Average:        0.979 MB
  Note:  These values currently only include a subset of arrays which are explicitly tracked.
  The "true" memory usage will be greater.
------------------------------------------------------------
  Available memory after initialize_scf [GB]:   1030.37
  Available memory after allocating mixing [GB]:   1030.37
  Evaluating new KS density.
  Integration grid: deviation in total charge (<rho> - N_e) =   1.776357E-15
  | <rho_up-rho_dn> = N_up-N_dn =     -1.0000; <|rho_up-rho_dn|> =      1.3566

  Time for density update prior                :  max(cpu_time)    wall_clock(cpu1)
  | self-consistency iterative process          :        0.008 s           0.008 s
  Available memory before start of SCF loop [GB]:   1030.37

------------------------------------------------------------
          Begin self-consistency iteration #    1

  Date     :  20250311, Time     :  174731.366
------------------------------------------------------------
  Pulay mixing of updated and previous charge densities.
  Available memory per node after mixing [GB]:   1030.37
  Renormalizing the density to the exact electron count on the 3D integration grid.
  | Formal number of electrons (from input files) :      15.0000000000
  | Integrated number of electrons on 3D grid     :      15.9499999993
  | Charge integration error                      :       0.9499999993
  | Normalization factor for density and gradient :       0.9404388715
  * The proposed renormalization factor deviates too far from 1.
  * Since the initial charge in geometry.in was not equal to the formal charge,
  * it is not yet safe to renormalize the charge. If this message persists
  * even in the final s.c.f. cycle, your integration accuracy may not be good enough.

  Evaluating partitioned Hartree potential by multipole expansion.
  | Original multipole sum: apparent total charge =   0.500000E-01
  | Sum of charges compensated after spline to logarithmic grids =   0.637284E-06
  | Analytical far-field extrapolation by fixed multipoles:
  | Hartree multipole sum: apparent total charge =   0.500000E-01
  Summing up the Hartree potential.
  Time summed over all CPUs for potential: real work        0.003 s, elapsed        0.003 s
  | RMS charge density error from multipole expansion :   0.393542E-03

  Integrating Hamiltonian matrix: batch-based integration.
  Time summed over all CPUs for integration: real work        0.661 s, elapsed        0.743 s

  Updating Kohn-Sham eigenvalues and eigenvectors using ELSI and the (modified) LAPACK eigensolver.
  Starting LAPACK eigensolver
  Finished Cholesky decomposition
  | Time :     0.000 s
  Finished transformation to standard eigenproblem
  | Time :     0.000 s
  Finished solving standard eigenproblem
  | Time :     0.001 s
  Finished back-transformation of eigenvectors
  | Time :     0.000 s
  Determining occupation numbers for Kohn-Sham eigenstates.
  | Chemical potential (Fermi level) in eV                 : -.70634525E+01
  | Error in electron count due to remaining E_F inaccuracy: 0.00000000E+00
  | Note that, for insulating systems, the printed 'chemical potential' value is not uniquely defined.
  | It can be anywhere in the energy gap, as long as it correctly separates occupied and unoccupied states.
  | In systems with a gap, the physically relevant chemical potential is the VBM or HOMO.
  | Maximum occupation number of highest empty state:  0.00E+00

  Writing Kohn-Sham eigenvalues.

  Spin-up eigenvalues:

  State    Occupation    Eigenvalue [Ha]    Eigenvalue [eV]
      1       0.00000         -19.175496         -521.79180
      2       1.00000         -10.151064         -276.22450
      3       1.00000          -1.191987          -32.43562
      4       1.00000          -0.735765          -20.02118
      5       1.00000          -0.614292          -16.71573
      6       1.00000          -0.607172          -16.52200
      7       1.00000          -0.541354          -14.73098
      8       1.00000          -0.423621          -11.52732
      9       0.00000          -0.235996           -6.42177
     10       0.00000          -0.052136           -1.41868
     11       0.00000          -0.010546           -0.28698
     12       0.00000           0.009795            0.26654
     13       0.00000           0.056478            1.53684
     14       0.00000           0.083224            2.26465
     15       0.00000           0.101605            2.76482
     16       0.00000           0.129931            3.53561
     17       0.00000           0.168449            4.58374

  Spin-down eigenvalues:

  State    Occupation    Eigenvalue [Ha]    Eigenvalue [eV]
      1       1.00000         -19.193123         -522.27145
      2       1.00000         -10.134835         -275.78290
      3       1.00000          -1.128365          -30.70437
      4       1.00000          -0.641212          -17.44826
      5       1.00000          -0.525853          -14.30919
      6       1.00000          -0.523352          -14.24113
      7       1.00000          -0.483314          -13.15165
      8       1.00000          -0.316629           -8.61591
      9       0.00000          -0.172960           -4.70649
     10       0.00000           0.000698            0.01900
     11       0.00000           0.035841            0.97529
     12       0.00000           0.049456            1.34577
     13       0.00000           0.106463            2.89701
     14       0.00000           0.140844            3.83255
     15       0.00000           0.156619            4.26182
     16       0.00000           0.162123            4.41159
     17       0.00000           0.213540            5.81072

  Current spin moment of the entire structure :
  | N = N_up - N_down :    1.00
  | S                 :    0.50
  | J                 :    2.00

  Highest occupied state (VBM) at     -8.61590704 eV
  | Occupation number:      1.00000000
  | Spin channel:        2

  Lowest unoccupied state (CBM) at  -521.79180309 eV
  | Occupation number:      0.00000000
  | Spin channel:        1

  Overall HOMO-LUMO gap:   -513.17589605 eV.

  Total energy components:
  | Sum of eigenvalues            :         -47.21193780 Ha       -1284.70219241 eV
  | XC energy correction          :         -14.28944391 Ha        -388.83555265 eV
  | XC potential correction       :          18.36622415 Ha         499.77038718 eV
  | Free-atom electrostatic energy:         -52.75122540 Ha       -1435.43387727 eV
  | Hartree energy correction     :           0.53889924 Ha          14.66419436 eV
  | Entropy correction            :           0.00000000 Ha           0.00000000 eV
  | ---------------------------
  | Total energy                  :         -95.34748373 Ha       -2594.53704079 eV
  | Total energy, T -> 0          :         -95.34748373 Ha       -2594.53704079 eV  <-- do not rely on this value for anything but (periodic) metals
  | Electronic free energy        :         -95.34748373 Ha       -2594.53704079 eV

  Derived energy quantities:
  | Kinetic energy                :         130.78191645 Ha        3558.75701419 eV
  | Electrostatic energy          :        -211.83995626 Ha       -5764.45850233 eV
  | Energy correction for multipole
  | error in Hartree potential    :          -0.00060240 Ha          -0.01639207 eV
  | Sum of eigenvalues per atom                           :        -321.17554810 eV
  | Total energy (T->0) per atom                          :        -648.63426020 eV  <-- do not rely on this value for anything but (periodic) metals
  | Electronic free energy per atom                       :        -648.63426020 eV
  Evaluating new KS density.
  Integration grid: deviation in total charge (<rho> - N_e) =   1.776357E-15
  | <rho_up-rho_dn> = N_up-N_dn =     -1.0000; <|rho_up-rho_dn|> =      1.3219

  Self-consistency convergence accuracy:
  | Change of charge/spin density :  0.4206E+01  0.4265E+01
  | Change of unmixed KS charge/spin density :  0.7573E+01  0.4205E+01
  | Change of sum of eigenvalues  : -0.1470E+02 eV
  | Change of total energy        :  0.3285E+01 eV


------------------------------------------------------------
  End self-consistency iteration #     1       :  max(cpu_time)    wall_clock(cpu1)
  | Time for this iteration                     :        0.039 s           0.039 s
  | Charge density update                       :        0.007 s           0.007 s
  | Density mixing                              :        0.000 s           0.000 s
  | Hartree multipole update                    :        0.001 s           0.001 s
  | Hartree multipole summation                 :        0.004 s           0.004 s
  | Integration                                 :        0.024 s           0.024 s
  | Solution of K.-S. eqns.                     :        0.002 s           0.002 s
  | Total energy evaluation                     :        0.000 s           0.001 s

  Partial memory accounting:
  | Current value for overall tracked memory usage:
  |   Minimum:        2.445 MB (on task 10)
  |   Maximum:        2.642 MB (on task  2)
  |   Average:        2.500 MB
  | Peak value for overall tracked memory usage:
  |   Minimum:        5.310 MB (on task 10 after allocating zora_vector2)
  |   Maximum:        5.507 MB (on task  2 after allocating zora_vector2)
  |   Average:        5.365 MB
  | Largest tracked array allocation so far:
  |   Minimum:        0.979 MB (zora_vector1 on task  0)
  |   Maximum:        0.979 MB (zora_vector1 on task  0)
  |   Average:        0.979 MB
  Note:  These values currently only include a subset of arrays which are explicitly tracked.
  The "true" memory usage will be greater.
------------------------------------------------------------

------------------------------------------------------------
          Begin self-consistency iteration #    2

  Date     :  20250311, Time     :  174731.405
------------------------------------------------------------
  Pulay mixing of updated and previous charge densities.
  Available memory per node after mixing [GB]:   1030.37
  Renormalizing the density to the exact electron count on the 3D integration grid.
  | Formal number of electrons (from input files) :      15.0000000000
  | Integrated number of electrons on 3D grid     :      15.0694268124
  | Charge integration error                      :       0.0694268124
  | Normalization factor for density and gradient :       0.9953928697
  * The proposed renormalization factor deviates too far from 1.
  * Since the initial charge in geometry.in was not equal to the formal charge,
  * it is not yet safe to renormalize the charge. If this message persists
  * even in the final s.c.f. cycle, your integration accuracy may not be good enough.

  Evaluating partitioned Hartree potential by multipole expansion.
  | Original multipole sum: apparent total charge =   0.930573E+00
  | Sum of charges compensated after spline to logarithmic grids =   0.165153E-04
  | Analytical far-field extrapolation by fixed multipoles:
  | Hartree multipole sum: apparent total charge =   0.930573E+00
  Summing up the Hartree potential.
  Time summed over all CPUs for potential: real work        0.003 s, elapsed        0.003 s
  | RMS charge density error from multipole expansion :   0.488006E-02

  Integrating Hamiltonian matrix: batch-based integration.
  Time summed over all CPUs for integration: real work        0.642 s, elapsed        0.724 s

  Updating Kohn-Sham eigenvalues and eigenvectors using ELSI and the (modified) LAPACK eigensolver.
  Starting LAPACK eigensolver
  Finished Cholesky decomposition
  | Time :     0.000 s
  Finished transformation to standard eigenproblem
  | Time :     0.000 s
  Finished solving standard eigenproblem
  | Time :     0.001 s
  Finished back-transformation of eigenvectors
  | Time :     0.000 s
  Determining occupation numbers for Kohn-Sham eigenstates.
  | Chemical potential (Fermi level) in eV                 : -.17063061E+02
  | Error in electron count due to remaining E_F inaccuracy: 0.00000000E+00
  | Note that, for insulating systems, the printed 'chemical potential' value is not uniquely defined.
  | It can be anywhere in the energy gap, as long as it correctly separates occupied and unoccupied states.
  | In systems with a gap, the physically relevant chemical potential is the VBM or HOMO.
  | Maximum occupation number of highest empty state:  0.00E+00

  Current spin moment of the entire structure :
  | N = N_up - N_down :    1.00
  | S                 :    0.50
  | J                 :    2.00

  Highest occupied state (VBM) at    -18.32550427 eV
  | Occupation number:      1.00000000
  | Spin channel:        2

  Lowest unoccupied state (CBM) at  -581.91879332 eV
  | Occupation number:      0.00000000
  | Spin channel:        1

  Overall HOMO-LUMO gap:   -563.59328905 eV.

  Checking to see if s.c.f. parameters should be adjusted.
  Adjusted the Pulay mixing parameter (charge_mix_param) for an expected low-gap system. New value:   0.020000 .
  Adjusted the occupation broadening width for an expected low-gap system. New value:      0.05000000 eV.

  Total energy components:
  | Sum of eigenvalues            :         -56.72757205 Ha       -1543.63577493 eV
  | XC energy correction          :         -12.50957985 Ha        -340.40298726 eV
  | XC potential correction       :          16.09878099 Ha         438.07011952 eV
  | Free-atom electrostatic energy:         -52.75122540 Ha       -1435.43387727 eV
  | Hartree energy correction     :          10.87787234 Ha         296.00196687 eV
  | Entropy correction            :          -0.00000000 Ha          -0.00000000 eV
  | ---------------------------
  | Total energy                  :         -95.01172397 Ha       -2585.40055307 eV
  | Total energy, T -> 0          :         -95.01172397 Ha       -2585.40055307 eV  <-- do not rely on this value for anything but (periodic) metals
  | Electronic free energy        :         -95.01172397 Ha       -2585.40055307 eV

  Derived energy quantities:
  | Kinetic energy                :          90.48640283 Ha        2462.26029932 eV
  | Electrostatic energy          :        -172.98854695 Ha       -4707.25786513 eV
  | Energy correction for multipole
  | error in Hartree potential    :          -0.00580413 Ha          -0.15793843 eV
  | Sum of eigenvalues per atom                           :        -385.90894373 eV
  | Total energy (T->0) per atom                          :        -646.35013827 eV  <-- do not rely on this value for anything but (periodic) metals
  | Electronic free energy per atom                       :        -646.35013827 eV
  Evaluating new KS density.
  Integration grid: deviation in total charge (<rho> - N_e) =   5.329071E-15
  | <rho_up-rho_dn> = N_up-N_dn =     -1.0000; <|rho_up-rho_dn|> =      1.2068

  Self-consistency convergence accuracy:
  | Change of charge/spin density :  0.3976E+01  0.4061E+01
  | Change of unmixed KS charge/spin density :  0.6891E-01  0.1144E-01
  | Change of sum of eigenvalues  : -0.2589E+03 eV
  | Change of total energy        :  0.9136E+01 eV


------------------------------------------------------------
  End self-consistency iteration #     2       :  max(cpu_time)    wall_clock(cpu1)
  | Time for this iteration                     :        0.037 s           0.038 s
  | Charge density update                       :        0.007 s           0.007 s
  | Density mixing                              :        0.001 s           0.001 s
  | Hartree multipole update                    :        0.001 s           0.001 s
  | Hartree multipole summation                 :        0.003 s           0.003 s
  | Integration                                 :        0.023 s           0.023 s
  | Solution of K.-S. eqns.                     :        0.002 s           0.002 s
  | Total energy evaluation                     :        0.000 s           0.001 s

  Partial memory accounting:
  | Current value for overall tracked memory usage:
  |   Minimum:        2.446 MB (on task 10)
  |   Maximum:        2.643 MB (on task  2)
  |   Average:        2.501 MB
  | Peak value for overall tracked memory usage:
  |   Minimum:        5.311 MB (on task 10 after allocating zora_vector2)
  |   Maximum:        5.508 MB (on task  2 after allocating zora_vector2)
  |   Average:        5.366 MB
  | Largest tracked array allocation so far:
  |   Minimum:        0.979 MB (zora_vector1 on task  0)
  |   Maximum:        0.979 MB (zora_vector1 on task  0)
  |   Average:        0.979 MB
  Note:  These values currently only include a subset of arrays which are explicitly tracked.
  The "true" memory usage will be greater.
------------------------------------------------------------

------------------------------------------------------------
          Begin self-consistency iteration #    3

  Date     :  20250311, Time     :  174731.443
------------------------------------------------------------
  Pulay mixing of updated and previous charge densities.
  Available memory per node after mixing [GB]:   1030.37
  Renormalizing the density to the exact electron count on the 3D integration grid.
  | Formal number of electrons (from input files) :      15.0000000000
  | Integrated number of electrons on 3D grid     :      15.0231413528
  | Charge integration error                      :       0.0231413528
  | Normalization factor for density and gradient :       0.9984596196
  * The proposed renormalization factor deviates too far from 1.
  * Since the initial charge in geometry.in was not equal to the formal charge,
[...]
  | Note that, for insulating systems, the printed 'chemical potential' value is not uniquely defined.
  | It can be anywhere in the energy gap, as long as it correctly separates occupied and unoccupied states.
  | In systems with a gap, the physically relevant chemical potential is the VBM or HOMO.
  | Maximum occupation number of highest empty state:  0.00E+00

  Current spin moment of the entire structure :
  | N = N_up - N_down :    1.00
  | S                 :    0.50
  | J                 :    2.00

  Highest occupied state (VBM) at    -17.76564142 eV
  | Occupation number:      1.00000000
  | Spin channel:        1

  Lowest unoccupied state (CBM) at  -557.06021442 eV
  | Occupation number:      0.00000000
  | Spin channel:        1

  Overall HOMO-LUMO gap:   -539.29457300 eV.

  Total energy components:
  | Sum of eigenvalues            :         -54.10115798 Ha       -1472.16741168 eV
  | XC energy correction          :         -12.93913236 Ha        -352.09170563 eV
  | XC potential correction       :          16.66253125 Ha         453.41054446 eV
  | Free-atom electrostatic energy:         -52.75122540 Ha       -1435.43387727 eV
  | Hartree energy correction     :           8.43958478 Ha         229.65278653 eV
  | Entropy correction            :          -0.00000000 Ha          -0.00000000 eV
  | ---------------------------
  | Total energy                  :         -94.68939971 Ha       -2576.62966360 eV
  | Total energy, T -> 0          :         -94.68939971 Ha       -2576.62966360 eV  <-- do not rely on this value for anything but (periodic) metals
  | Electronic free energy        :         -94.68939971 Ha       -2576.62966360 eV

  Derived energy quantities:
  | Kinetic energy                :          92.80483703 Ha        2525.34810383 eV
  | Electrostatic energy          :        -174.55510438 Ha       -4749.88606180 eV
  | Energy correction for multipole
  | error in Hartree potential    :          -0.00455346 Ha          -0.12390592 eV
  | Sum of eigenvalues per atom                           :        -368.04185292 eV
  | Total energy (T->0) per atom                          :        -644.15741590 eV  <-- do not rely on this value for anything but (periodic) metals
  | Electronic free energy per atom                       :        -644.15741590 eV

  Self-consistency convergence accuracy:
  | Change of charge/spin density :  0.1429E-05  0.1583E-05
  | Change of unmixed KS charge/spin density :  0.2803E-05  0.1503E-05
  | Change of sum of eigenvalues  :  0.7867E-07 eV
  | Change of total energy        :  0.1493E-09 eV

  Writing Kohn-Sham eigenvalues.

  Spin-up eigenvalues:

  State    Occupation    Eigenvalue [Ha]    Eigenvalue [eV]
      1       0.00000         -20.471587         -557.06021
      2       1.00000         -10.408926         -283.24128
      3       1.00000          -1.453492          -39.55152
      4       1.00000          -0.947681          -25.78773
      5       1.00000          -0.840364          -22.86747
      6       1.00000          -0.837593          -22.79207
      7       1.00000          -0.812566          -22.11105
      8       1.00000          -0.652875          -17.76564
      9       0.00000          -0.484406          -13.18136
     10       0.00000          -0.220918           -6.01150
     11       0.00000          -0.192217           -5.23048
     12       0.00000          -0.171350           -4.66267
     13       0.00000          -0.103687           -2.82146
     14       0.00000          -0.098338           -2.67591
     15       0.00000          -0.072639           -1.97661
     16       0.00000          -0.038321           -1.04278
     17       0.00000           0.012373            0.33670

  Spin-down eigenvalues:

  State    Occupation    Eigenvalue [Ha]    Eigenvalue [eV]
      1       1.00000         -22.043688         -599.83927
      2       1.00000         -10.407210         -283.19459
      3       1.00000          -1.498010          -40.76293
      4       1.00000          -0.967531          -26.32785
      5       1.00000          -0.858947          -23.37314
      6       1.00000          -0.856486          -23.30616
      7       1.00000          -0.847217          -23.05395
      8       1.00000          -0.668572          -18.19276
      9       0.00000          -0.488825          -13.30160
     10       0.00000          -0.221196           -6.01906
     11       0.00000          -0.200621           -5.45919
     12       0.00000          -0.171170           -4.65778
     13       0.00000          -0.103166           -2.80728
     14       0.00000          -0.096335           -2.62141
     15       0.00000          -0.076186           -2.07314
     16       0.00000          -0.044514           -1.21128
     17       0.00000           0.007250            0.19727

  Current spin moment of the entire structure :
  | N = N_up - N_down :    1.00
  | S                 :    0.50
  | J                 :    2.00

  Highest occupied state (VBM) at    -17.76564142 eV
  | Occupation number:      1.00000000
  | Spin channel:        1

  Lowest unoccupied state (CBM) at  -557.06021442 eV
  | Occupation number:      0.00000000
  | Spin channel:        1

  Overall HOMO-LUMO gap:   -539.29457300 eV.

  | Chemical Potential                          :   -16.57345435 eV
  | Note that, for insulating systems, the printed 'chemical potential' value is not uniquely defined.
  | It can be anywhere in the energy gap, as long as it correctly separates occupied and unoccupied states.
  | In systems with a gap, the physically relevant chemical potential is the VBM or HOMO.

  Self-consistency cycle converged.


------------------------------------------------------------
  End self-consistency iteration #    25       :  max(cpu_time)    wall_clock(cpu1)
  | Time for this iteration                     :        0.029 s           0.029 s
  | Charge density update                       :        0.000 s           0.000 s
  | Density mixing                              :        0.001 s           0.000 s
  | Hartree multipole update                    :        0.001 s           0.001 s
  | Hartree multipole summation                 :        0.003 s           0.004 s
  | Integration                                 :        0.022 s           0.021 s
  | Solution of K.-S. eqns.                     :        0.002 s           0.003 s
  | Total energy evaluation                     :        0.000 s           0.000 s

  Partial memory accounting:
  | Current value for overall tracked memory usage:
  |   Minimum:        2.446 MB (on task 10)
  |   Maximum:        2.643 MB (on task  2)
  |   Average:        2.501 MB
  | Peak value for overall tracked memory usage:
  |   Minimum:        5.311 MB (on task 10 after allocating zora_vector2)
  |   Maximum:        5.508 MB (on task  2 after allocating zora_vector2)
  |   Average:        5.366 MB
  | Largest tracked array allocation so far:
  |   Minimum:        0.979 MB (zora_vector1 on task  0)
  |   Maximum:        0.979 MB (zora_vector1 on task  0)
  |   Average:        0.979 MB
  Note:  These values currently only include a subset of arrays which are explicitly tracked.
  The "true" memory usage will be greater.
------------------------------------------------------------

------------------------------------------------------------
          Post-processing: scaled ZORA corrections to eigenvalues and total energy.

  Date     :  20250311, Time     :  174732.286
------------------------------------------------------------
  Computing correction matrix for scaled ZORA eigenvalues.
  Evaluating scaled zora correction for each Kohn-Sham eigenstate.
  Determining occupation numbers for Kohn-Sham eigenstates.
  | Chemical potential (Fermi level) in eV                 : -.16552954E+02
  | Error in electron count due to remaining E_F inaccuracy: 0.00000000E+00
  | Note that, for insulating systems, the printed 'chemical potential' value is not uniquely defined.
  | It can be anywhere in the energy gap, as long as it correctly separates occupied and unoccupied states.
  | In systems with a gap, the physically relevant chemical potential is the VBM or HOMO.
  | Maximum occupation number of highest empty state:  0.00E+00

  Writing Kohn-Sham eigenvalues.

  Spin-up eigenvalues:

  State    Occupation    Eigenvalue [Ha]    Eigenvalue [eV]
      1       0.00000         -20.455434         -556.62068
      2       1.00000         -10.404508         -283.12108
      3       1.00000          -1.453369          -39.54818
      4       1.00000          -0.947621          -25.78609
      5       1.00000          -0.840312          -22.86604
      6       1.00000          -0.837546          -22.79079
      7       1.00000          -0.812508          -22.10948
      8       1.00000          -0.652837          -17.76460
      9       0.00000          -0.484380          -13.18065
     10       0.00000          -0.220913           -6.01134
     11       0.00000          -0.192210           -5.23031
     12       0.00000          -0.171346           -4.66257
     13       0.00000          -0.103685           -2.82142
     14       0.00000          -0.098336           -2.67587
     15       0.00000          -0.072637           -1.97656
     16       0.00000          -0.038320           -1.04275
     17       0.00000           0.012373            0.33669

  Spin-down eigenvalues:

  State    Occupation    Eigenvalue [Ha]    Eigenvalue [eV]
      1       1.00000         -22.025840         -599.35361
      2       1.00000         -10.402793         -283.07439
      3       1.00000          -1.497880          -40.75940
      4       1.00000          -0.967461          -26.32595
      5       1.00000          -0.858898          -23.37182
      6       1.00000          -0.856431          -23.30467
      7       1.00000          -0.847151          -23.05214
      8       1.00000          -0.668535          -18.19175
      9       0.00000          -0.488799          -13.30091
     10       0.00000          -0.221190           -6.01888
     11       0.00000          -0.200615           -5.45900
     12       0.00000          -0.171166           -4.65767
     13       0.00000          -0.103164           -2.80724
     14       0.00000          -0.096334           -2.62137
     15       0.00000          -0.076185           -2.07309
     16       0.00000          -0.044512           -1.21125
     17       0.00000           0.007250            0.19727

  Current spin moment of the entire structure :
  | N = N_up - N_down :    1.00
  | S                 :    0.50
  | J                 :    2.00

  Highest occupied state (VBM) at    -17.76459903 eV
  | Occupation number:      1.00000000
  | Spin channel:        1

  Lowest unoccupied state (CBM) at  -556.62067720 eV
  | Occupation number:      0.00000000
  | Spin channel:        1

  Overall HOMO-LUMO gap:   -538.85607817 eV.

  Total energy components:
  | Sum of eigenvalues            :         -54.07369109 Ha       -1471.41999969 eV
  | XC energy correction          :         -12.93913236 Ha        -352.09170563 eV
  | XC potential correction       :          16.66253125 Ha         453.41054446 eV
  | Free-atom electrostatic energy:         -52.75122540 Ha       -1435.43387727 eV
  | Hartree energy correction     :           8.43958478 Ha         229.65278653 eV
  | Entropy correction            :          -0.00000000 Ha          -0.00000000 eV
  | ---------------------------
  | Total energy                  :         -94.66193282 Ha       -2575.88225161 eV
  | Total energy, T -> 0          :         -94.66193282 Ha       -2575.88225161 eV  <-- do not rely on this value for anything but (periodic) metals
  | Electronic free energy        :         -94.66193282 Ha       -2575.88225161 eV

  Derived energy quantities:
  | Kinetic energy                :          92.83230391 Ha        2526.09551582 eV
  | Electrostatic energy          :        -174.55510438 Ha       -4749.88606180 eV
  | Energy correction for multipole
  | error in Hartree potential    :          -0.00455346 Ha          -0.12390592 eV
  | Sum of eigenvalues per atom                           :        -367.85499992 eV
  | Total energy (T->0) per atom                          :        -643.97056290 eV  <-- do not rely on this value for anything but (periodic) metals
  | Electronic free energy per atom                       :        -643.97056290 eV
  End evaluation of scaled ZORA corrections.
  | Time for scaled ZORA corrections            :        0.025 s           0.026 s
------------------------------------------------------------

  Energy and forces in a compact form:
  | Total energy uncorrected      :         -0.257588225160900E+04 eV
  | Total energy corrected        :         -0.257588225160900E+04 eV  <-- do not rely on this value for anything but (periodic) metals
  | Electronic free energy        :         -0.257588225160900E+04 eV

  ------------------------------------ 
  Start decomposition of the XC Energy 
  ------------------------------------ 
  X and C from original XC functional choice 
  Hartree-Fock Energy :          0.000000000 Ha              0.000000000 eV
  X Energy            :        -12.449758429 Ha           -338.775163549 eV
  C Energy            :         -0.489373927 Ha            -13.316542081 eV
  XC Energy w/o HF    :        -12.939132356 Ha           -352.091705631 eV
  Total XC Energy     :        -12.939132356 Ha           -352.091705631 eV
  ------------------------------------ 
  LDA X and C from self-consistent density 
  X Energy LDA        :        -11.342464551 Ha           -308.644164061 eV
  C Energy LDA        :         -0.953937108 Ha            -25.957949431 eV
  ------------------------------------ 
  End decomposition of the XC Energy 
  ------------------------------------ 

------------------------------------------------------------

------------------------------------------------------------------------------
  Final output of selected total energy values:

  The following output summarizes some interesting total energy values
  at the end of a run (AFTER all relaxation, molecular dynamics, etc.).

  | Total energy of the DFT / Hartree-Fock s.c.f. calculation      :          -2575.882251609 eV
  | Final zero-broadening corrected energy (caution - metals only) :          -2575.882251609 eV
  | For reference only, the value of 1 Hartree used in FHI-aims is :             27.211384500 eV

  Before relying on these values, please be sure to understand exactly which
  total energy value is referred to by a given number. Different objects may
  all carry the same name 'total energy'. Definitions:

  Total energy of the DFT / Hartree-Fock s.c.f. calculation:
  | Note that this energy does not include ANY quantities calculated after the
  | s.c.f. cycle, in particular not ANY RPA, MP2, etc. many-body perturbation terms.
  | Scalar relativistic effects have been included in the 'scaled ZORA' approximation.

  Final zero-broadening corrected energy:
  | For metallic systems only, a broadening of the occupation numbers at the Fermi
  | level can be extrapolated back to zero broadening by an electron-gas inspired
  | formula. For all systems that are not real metals, this value can be
  | meaningless and should be avoided.

------------------------------------------------------------------------------
  Methods described in the following list of references were used in this FHI-aims run.
  If you publish the results, please make sure to cite these reference if they apply.
  FHI-aims is an academic code, and for our developers (often, Ph.D. students
  and postdocs), scientific credit in the community is essential.
  Thank you for helping us!

  For any use of FHI-aims, please cite:

    Volker Blum, Ralf Gehrke, Felix Hanke, Paula Havu, Ville Havu,
    Xinguo Ren, Karsten Reuter, and Matthias Scheffler
    'Ab initio molecular simulations with numeric atom-centered orbitals'
    Computer Physics Communications 180, 2175-2196 (2009)
    http://doi.org/10.1016/j.cpc.2009.06.022


  The ELSI infrastructure was used in your run to solve the Kohn-Sham electronic structure.
  Please check out https://wordpress.elsi-interchange.org to learn more.
  If scalability is important for your project, please acknowledge ELSI by citing:

    V. W-z. Yu, F. Corsetti, A. Garcia, W. P. Huhn, M. Jacquelin, W. Jia,
    B. Lange, L. Lin, J. Lu, W. Mi, A. Seifitokaldani, A. Vazquez-Mayagoitia,
    C. Yang, H. Yang, and V. Blum
    'ELSI: A unified software interface for Kohn-Sham electronic structure solvers'
    Computer Physics Communications 222, 267-285 (2018).
    http://doi.org/10.1016/j.cpc.2017.09.007


  For the real-space grid partitioning and parallelization used in this calculation, please cite:

    Ville Havu, Volker Blum, Paula Havu, and Matthias Scheffler,
    'Efficient O(N) integration for all-electron electronic structure calculation'
    'using numerically tabulated basis functions'
    Journal of Computational Physics 228, 8367-8379 (2009).
    http://doi.org/10.1016/j.jcp.2009.08.008

  Of course, there are many other important community references, e.g., those cited in the
  above references. Our list is limited to references that describe implementations in the
  FHI-aims code. The reason is purely practical (length of this list) - please credit others as well.

------------------------------------------------------------
          Leaving FHI-aims.
          Date     :  20250311, Time     :  174732.324

          Computational steps:
          | Number of self-consistency cycles          :           25
          | Number of SCF (re)initializations          :            1

          Detailed time accounting                     :  max(cpu_time)    wall_clock(cpu1)
          | Total time                                  :        1.391 s           1.391 s
          | Preparation time                            :        0.289 s           0.285 s
          | Boundary condition initalization            :        0.018 s           0.018 s
          | Grid partitioning                           :        0.016 s           0.017 s
          | Preloading free-atom quantities on grid     :        0.018 s           0.018 s
          | Free-atom superposition energy              :        0.002 s           0.001 s
          | Total time for integrations                 :        0.586 s           0.583 s
          | Total time for solution of K.-S. equations  :        0.063 s           0.064 s
          | Total time for density update               :        0.180 s           0.180 s
          | Total time for mixing                       :        0.017 s           0.013 s
          | Total time for Hartree multipole update     :        0.024 s           0.024 s
          | Total time for Hartree multipole sum        :        0.089 s           0.094 s
          | Total time for total energy evaluation      :        0.002 s           0.005 s
          | Total time for scaled ZORA corrections      :        0.025 s           0.026 s

          Partial memory accounting:
          | Residual value for overall tracked memory usage across tasks:     0.000000 MB (should be 0.000000 MB)
          | Peak values for overall tracked memory usage:
          |   Minimum:        5.311 MB (on task 10 after allocating zora_vector2)
          |   Maximum:        5.508 MB (on task  2 after allocating zora_vector2)
          |   Average:        5.366 MB
          | Largest tracked array allocation:
          |   Minimum:        0.979 MB (zora_vector1 on task  0)
          |   Maximum:        0.979 MB (zora_vector1 on task  0)
          |   Average:        0.979 MB
          Note:  These values currently only include a subset of arrays which are explicitly tracked.
          The "true" memory usage will be greater.

          Have a nice day.
------------------------------------------------------------
