------------------------------------------------------------
          Invoking FHI-aims ...

          When using FHI-aims, please cite the following reference:

            Volker Blum, Ralf Gehrke, Felix Hanke, Paula Havu,
            Ville Havu, Xinguo Ren, Karsten Reuter, and Matthias Scheffler,
            'Ab Initio Molecular Simulations with Numeric Atom-Centered Orbitals',
            Computer Physics Communications 180, 2175-2196 (2009)

          In addition, many other developments in FHI-aims are likely important for
          your particular application. If so, please cite them. A partial list of references
          is written at the end of this file. Thank you for giving credit to the authors
          of these developments.

          For general information about FHI-aims please find us at

            https://fhi-aims.org

          Online tutorials can be found at

            https://fhi-aims-club.gitlab.io/tutorials/tutorials-overview/

          For any questions about FHI-aims, please visit our slack channel at

            https://fhi-aims.slack.com

          and our main development and support site at

            https://aims-git.rz-berlin.mpg.de .

          The latter site, in particular, has a wiki to collect information, as well
          as an issue tracker to log discussions, suggest improvements, and report issues
          or bugs. https://aims-git.rz-berlin.mpg.de is also the main development site
          of the project and all new and updated code versions can be obtained there.
          Please send an email to aims-coordinators@fhi-berlin.mpg.de and we will add
          you to these sites. They are for you and everyone is welcome there.

------------------------------------------------------------



  Date     :  20241014, Time     :  145950.387
  Time zero on CPU 1             :   0.352594000000000E+00  s.
  Internal wall clock time zero  :           498149990.387  s.

  FHI-aims created a unique identifier for this run for later identification
  aims_uuid : A2D6345F-4C31-4689-A44E-5FB91E17BBD3

  Build configuration of the current instance of FHI-aims
  -------------------------------------------------------
  FHI-aims version      : 240605
  Commit number         : b001b2e18
  CMake host system     : Linux-6.5.0-41-generic
  CMake version         : 3.22.1
  Fortran compiler      : /opt/intel/oneapi/mpi/2021.12/bin/mpiifort (IntelLLVM) version 2024.1.0
  Fortran compiler flags: -fc=ifx -O3 -ip -fp-model precise
  C compiler            : /opt/intel/oneapi/mpi/2021.12/bin/mpiicc (IntelLLVM) version 2024.1.0
  C compiler flags      : -cc=icx -O3 -ip -fp-model precise -std=gnu99
  C++ compiler          : /opt/intel/oneapi/mpi/2021.12/bin/mpiicpc (IntelLLVM) version 2024.1.0
  C++ compiler flags    : -cxx=icpx -O3 -ip -fp-model precise -std=c++11
  HIP compiler          :
  HIP compiler flags    :
  HIP GPU arch          :
  Using MPI
  Using ScaLAPACK
  Using LibXC
  Using i-PI
  Using RLSY
  Linking against: /opt/intel/oneapi/mkl/2024.1/lib/intel64/libmkl_intel_lp64.so
                   /opt/intel/oneapi/mkl/2024.1/lib/intel64/libmkl_sequential.so
                   /opt/intel/oneapi/mkl/2024.1/lib/intel64/libmkl_core.so
                   /opt/intel/oneapi/mkl/2024.1/lib/intel64/libmkl_blacs_intelmpi_lp64.so
                   /opt/intel/oneapi/mkl/2024.1/lib/intel64/libmkl_scalapack_lp64.so
                   /opt/intel/oneapi/mkl/2024.1/lib/intel64/libmkl_core.so

  Using       32 parallel tasks.
  Task        0 on host RSL-arvutus reporting.
  Task        1 on host RSL-arvutus reporting.
  Task        2 on host RSL-arvutus reporting.
  Task        3 on host RSL-arvutus reporting.
  Task        4 on host RSL-arvutus reporting.
  Task        5 on host RSL-arvutus reporting.
  Task        6 on host RSL-arvutus reporting.
  Task        7 on host RSL-arvutus reporting.
  Task        8 on host RSL-arvutus reporting.
  Task        9 on host RSL-arvutus reporting.
  Task       10 on host RSL-arvutus reporting.
  Task       11 on host RSL-arvutus reporting.
  Task       12 on host RSL-arvutus reporting.
  Task       13 on host RSL-arvutus reporting.
  Task       14 on host RSL-arvutus reporting.
  Task       15 on host RSL-arvutus reporting.
  Task       16 on host RSL-arvutus reporting.
  Task       17 on host RSL-arvutus reporting.
  Task       18 on host RSL-arvutus reporting.
  Task       19 on host RSL-arvutus reporting.
  Task       20 on host RSL-arvutus reporting.
  Task       21 on host RSL-arvutus reporting.
  Task       22 on host RSL-arvutus reporting.
  Task       23 on host RSL-arvutus reporting.
  Task       24 on host RSL-arvutus reporting.
  Task       25 on host RSL-arvutus reporting.
  Task       26 on host RSL-arvutus reporting.
  Task       27 on host RSL-arvutus reporting.
  Task       28 on host RSL-arvutus reporting.
  Task       29 on host RSL-arvutus reporting.
  Task       30 on host RSL-arvutus reporting.
  Task       31 on host RSL-arvutus reporting.

  Memory overcommitment is allowed on your operating system.

  Obtaining array dimensions for all initial allocations:
  
  -----------------------------------------------------------------------
  Parsing control.in (first pass over file, find array dimensions only).
  The contents of control.in will be repeated verbatim below
  unless switched off by setting 'verbatim_writeout .false.' .
  in the first line of control.in .
  -----------------------------------------------------------------------
  
    xc              pbe
    relativistic    atomic_zora scalar
  
    k_grid          4 8 2
  
    spin		  none
  
    output          Mulliken
  
  
  ################################################################################
  #
  #  FHI-aims code project
  #  VB, Fritz-Haber Institut, 2009
  #
  #  Suggested "light" defaults for Ti atom (to be pasted into control.in file)
  #  Be sure to double-check any results obtained with these settings for post-processing,
  #  e.g., with the "tight" defaults and larger basis sets.
  #
  ################################################################################
    species        Ti
  #     global species definitions
      nucleus             22
      mass                47.867
  #
      l_hartree           4
  #
      cut_pot             3.5          1.5  1.0
      basis_dep_cutoff    1e-4
  #
      radial_base         48 5.0
      radial_multiplier   1
      angular_grids       specified
        division   0.5171   50
        division   0.9824  110
        division   1.2917  194
        division   1.4940  302
  #      division   1.6934  434
  #      division   1.8425  590
  #      division   2.1901  770
  #      division   2.2896  974
  #      division   2.8244 1202
  #      outer_grid  974
        outer_grid  302
  ################################################################################
  #
  #  Definition of "minimal" basis
  #
  ################################################################################
  #     valence basis states
      valence      4  s   2.
      valence      3  p   6.
      valence      3  d   2.
  #     ion occupancy
      ion_occ      4  s   1.
      ion_occ      3  p   6.
      ion_occ      3  d   1.
  ################################################################################
  #
  #  Suggested additional basis functions. For production calculations,
  #  uncomment them one after another (the most important basis functions are
  #  listed first).
  #
  #  Constructed for dimers: 1.6 A, 1.85 A, 2.5 A, 3.25 A, 4.25 A
  #
  ################################################################################
  #  "First tier" - improvements: -396.25 meV to -19.41 meV
       hydro 4 f 8
       hydro 3 d 2.7
       ionic 4 p auto
  #     hydro 5 g 11.6
       ionic 4 s auto
  #  "Second tier" - improvements: -16.30 meV to -2.03 meV
  #     hydro 3 d 4.4
  #     hydro 6 h 16
  #     hydro 4 f 9.4
  #     hydro 4 p 4.5
  #     hydro 1 s 0.5
  #  "Third tier" - improvements: -6.28 meV to -0.37 meV
  #     hydro 4 d 6.4
  #     hydro 4 f 10
  #     hydro 5 g 12
  #     hydro 2 p 1.7
  #     hydro 6 h 16.4
  #     hydro 4 s 3.8
  #  Further basis functions: -0.45 meV and smaller improvements
  #     hydro 3 d 8.8
  #     hydro 5 p 18
  #     hydro 4 f 22.4
  #     hydro 5 f 7.2  # -0.16 meV
  #     hydro 3 d 2.1  # -0.11 meV
  #     hydro 5 g 7.4  # -0.09 meV
  
  
  ################################################################################
  #
  #  FHI-aims code project
  #  VB, Fritz-Haber Institut, 2009
  #
  #  Suggested "light" defaults for O atom (to be pasted into control.in file)
  #  Be sure to double-check any results obtained with these settings for post-processing,
  #  e.g., with the "tight" defaults and larger basis sets.
  #
  ################################################################################
    species        O
  #     global species definitions
      nucleus             8
      mass                15.9994
  #
      l_hartree           4
  #
      cut_pot             3.5  1.5  1.0
      basis_dep_cutoff    1e-4
  #
      radial_base         36 5.0
      radial_multiplier   1
       angular_grids specified
        division   0.2659   50
        division   0.4451  110
        division   0.6052  194
        division   0.7543  302
  #      division   0.8014  434
  #      division   0.8507  590
  #      division   0.8762  770
  #      division   0.9023  974
  #      division   1.2339 1202
  #      outer_grid 974
        outer_grid 302
  ################################################################################
  #
  #  Definition of "minimal" basis
  #
  ################################################################################
  #     valence basis states
      valence      2  s   2.
      valence      2  p   4.
  #     ion occupancy
      ion_occ      2  s   1.
      ion_occ      2  p   3.
  ################################################################################
  #
  #  Suggested additional basis functions. For production calculations,
  #  uncomment them one after another (the most important basis functions are
  #  listed first).
  #
  #  Constructed for dimers: 1.0 A, 1.208 A, 1.5 A, 2.0 A, 3.0 A
  #
  ################################################################################
  #  "First tier" - improvements: -699.05 meV to -159.38 meV
       hydro 2 p 1.8
       hydro 3 d 7.6
       hydro 3 s 6.4
  #  "Second tier" - improvements: -49.91 meV to -5.39 meV
  #     hydro 4 f 11.6
  #     hydro 3 p 6.2
  #     hydro 3 d 5.6
  #     hydro 5 g 17.6
  #     hydro 1 s 0.75
  #  "Third tier" - improvements: -2.83 meV to -0.50 meV
  #     ionic 2 p auto
  #     hydro 4 f 10.8
  #     hydro 4 d 4.7
  #     hydro 2 s 6.8
  #  "Fourth tier" - improvements: -0.40 meV to -0.12 meV
  #     hydro 3 p 5
  #     hydro 3 s 3.3
  #     hydro 5 g 15.6
  #     hydro 4 f 17.6
  #     hydro 4 d 14
  # Further basis functions - -0.08 meV and below
  #     hydro 3 s 2.1
  #     hydro 4 d 11.6
  #     hydro 3 p 16
  #     hydro 2 s 17.2
  
  ################################################################################
  #
  #  "Core" basis functions and numerical settings for O atom.
  #  Based on “tight” defaults (V. Blum, 2009).
  #
  ################################################################################
    species        O1
  #     global species definitions
      nucleus             8.
      mass                15.9994
  #
      l_hartree           6
  #
      cut_pot             4.0  2.0  1.0
      basis_dep_cutoff    1e-4
  #
      radial_base         36 7.0
      radial_multiplier   2
       angular_grids specified
        division   0.1817   50
        division   0.3417  110
        division   0.4949  194
        division   0.6251  302
        division   0.8014  434
  #      division   0.8507  590
  #      division   0.8762  770
  #      division   0.9023  974
  #      division   1.2339 1202
  #      outer_grid 974
        outer_grid  434
  ################################################################################
  #
  #  Definition of "minimal" basis
  #
  ################################################################################
  #     valence basis states
      valence      2  s   2.
      valence      2  p   4.
  #     ion occupancy
      ion_occ      2  s   1.
      ion_occ      2  p   3.
  ################################################################################
  #
  #  Suggested additional basis functions. For production calculations,
  #  uncomment them one after another (the most important basis functions are
  #  listed first).
  #
  #  Constructed for dimers: 1.0 A, 1.208 A, 1.5 A, 2.0 A, 3.0 A
  #
  ################################################################################
  #  "First tier" - improvements: -699.05 meV to -159.38 meV
       hydro 2 p 1.8
       hydro 3 d 7.6
       hydro 3 s 6.4
  #  "Second tier" - improvements: -49.91 meV to -5.39 meV
       hydro 4 f 11.6
       hydro 3 p 6.2
       hydro 3 d 5.6
       hydro 5 g 17.6
       hydro 1 s 0.75
  #  "Third tier" - improvements: -2.83 meV to -0.50 meV
       ionic 2 p auto
       hydro 4 f 10.8
       hydro 4 d 4.7
       hydro 2 s 6.8
  #  "Fourth tier" - improvements: -0.40 meV to -0.12 meV
  #     hydro 3 p 5
  #     hydro 3 s 3.3
  #     hydro 5 g 15.6
  #     hydro 4 f 17.6
  #     hydro 4 d 14
  # Further basis functions - -0.08 meV and below
  #     hydro 3 s 2.1
  #     hydro 4 d 11.6
  #     hydro 3 p 16
  #     hydro 2 s 17.2
  
  # Additional basis functions for atom with a core hole
       hydro 1 s 12.0
       hydro 1 s 10.0
       hydro 1 s 6.0
       hydro 2 s 10.0
       hydro 2 p 8.0
       hydro 2 p 6.0
       hydro 3 d 8.0
  
  -----------------------------------------------------------------------
  Completed first pass over input file control.in .
  -----------------------------------------------------------------------
  
  
  -----------------------------------------------------------------------
  Parsing geometry.in (first pass over file, find array dimensions only).
  The contents of geometry.in will be repeated verbatim below
  unless switched off by setting 'verbatim_writeout .false.' .
  in the first line of geometry.in .
  -----------------------------------------------------------------------
  
  lattice_vector 6.566127 0.000000 0.000000
  lattice_vector 0.000000 2.972883 0.000000
  lattice_vector 0.000000 0.000000 22.332457
  
  atom_frac 0.999994 0.000000 0.368597 O
  atom_frac 0.305556 0.500000 0.425767 O
  atom_frac 0.499997 0.000000 0.425768 Ti
  atom_frac 0.999997 0.500000 0.425768 Ti
  atom_frac 0.694439 0.500000 0.425769 O
  atom_frac 0.000001 0.000000 0.482939 O
  atom_frac 0.499991 0.000000 0.515613 O
  atom_frac 0.805553 0.500000 0.572783 O
  atom_frac 0.999995 0.000000 0.572784 Ti
  atom_frac 0.499995 0.500000 0.572784 Ti
  atom_frac 0.194436 0.500000 0.572786 O
  atom_frac 0.499998 0.000000 0.629955 O
  
  -----------------------------------------------------------------------
  Completed first pass over input file geometry.in .
  -----------------------------------------------------------------------
  

  Basic array size parameters:
  | Number of species                 :        3
  | Number of atoms                   :       12
  | Number of lattice vectors         :        3
  | Max. basis fn. angular momentum   :        4
  | Max. atomic/ionic basis occupied n:        4
  | Max. number of basis fn. types    :        3
  | Max. radial fns per species/type  :       18
  | Max. logarithmic grid size        :     1383
  | Max. radial integration grid size :       73
  | Max. angular integration grid size:      434
  | Max. angular grid division number :        8
  | Radial grid for Hartree potential :     1383
  | Number of spin channels           :        1

------------------------------------------------------------
          Reading file control.in.
------------------------------------------------------------
  XC: Using PBE gradient-corrected functionals.
  Scalar relativistic treatment of kinetic energy: on-site free-atom approximation to ZORA.
  Found k-point grid:         4         8         2
  Spin treatment: No spin polarisation.
  Mulliken charge analysis will be performed and summarised to the main output.
  Full Mulliken charge analysis will be written to file 'Mulliken.out'.
 
  Reading configuration options for species Ti                  .
  | Found nuclear charge :  22.0000
  | Found atomic mass :    47.8670000000000      amu
  | Found l_max for Hartree potential  :   4
  | Found cutoff potl. onset [A], width [A], scale factor :    3.50000    1.50000    1.00000
  | Threshold for basis-dependent cutoff potential is   0.100000E-03
  | Found data for basic radial integration grid :    48 points, outermost radius =    5.000 A
  | Found multiplier for basic radial grid :   1
  | Found angular grid specification: user-specified.
  | Specified grid contains     5 separate shells.
  | Check grid settings after all constraints further below.
  | Found free-atom valence shell :  4 s   2.000
  | Found free-atom valence shell :  3 p   6.000
  | Found free-atom valence shell :  3 d   2.000
  | Found free-ion valence shell :  4 s   1.000
  | Found free-ion valence shell :  3 p   6.000
  | Found free-ion valence shell :  3 d   1.000
  | Found hydrogenic basis function :  4 f   8.000
  | Found hydrogenic basis function :  3 d   2.700
  | Found ionic basis function :  4 p , default cutoff radius.
  | Found ionic basis function :  4 s , default cutoff radius.
 | Encountered keyword species, ending the description of species Ti                  .
  Species Ti                  : Missing cutoff potential type.
  Defaulting to exp(1/x)/(1-x)^2 type cutoff potential.
  Species Ti: No 'logarithmic' tag. Using default grid for free atom:
  | Default logarithmic grid data [bohr] : 0.1000E-03 0.1000E+03 0.1012E+01
  | Will include ionic basis functions of  2.0-fold positive Ti                   ion.
  Species Ti: On-site basis accuracy parameter (for Gram-Schmidt orthonormalisation) not specified.
  Using default value basis_acc =  0.1000000E-03.
  Species Ti                  : Using default innermost maximum threshold i_radial=  2 for radial functions.
  Species Ti                  : Default cutoff onset for free atom density etc. : 0.35000000E+01 AA.
  Species Ti                  : Basic radial grid will be enhanced according to radial_multiplier =   1, to contain    48 grid points.
 
  Reading configuration options for species O                   .
  | Found nuclear charge :   8.0000
  | Found atomic mass :    15.9994000000000      amu
  | Found l_max for Hartree potential  :   4
  | Found cutoff potl. onset [A], width [A], scale factor :    3.50000    1.50000    1.00000
  | Threshold for basis-dependent cutoff potential is   0.100000E-03
  | Found data for basic radial integration grid :    36 points, outermost radius =    5.000 A
  | Found multiplier for basic radial grid :   1
  | Found angular grid specification: user-specified.
  | Specified grid contains     5 separate shells.
  | Check grid settings after all constraints further below.
  | Found free-atom valence shell :  2 s   2.000
  | Found free-atom valence shell :  2 p   4.000
  | Found free-ion valence shell :  2 s   1.000
  | Found free-ion valence shell :  2 p   3.000
  | Found hydrogenic basis function :  2 p   1.800
  | Found hydrogenic basis function :  3 d   7.600
  | Found hydrogenic basis function :  3 s   6.400
 | Encountered keyword species, ending the description of species O                   .
  Species O                   : Missing cutoff potential type.
  Defaulting to exp(1/x)/(1-x)^2 type cutoff potential.
  Species O : No 'logarithmic' tag. Using default grid for free atom:
  | Default logarithmic grid data [bohr] : 0.1000E-03 0.1000E+03 0.1012E+01
  Species O : On-site basis accuracy parameter (for Gram-Schmidt orthonormalisation) not specified.
  Using default value basis_acc =  0.1000000E-03.
  Species O                   : Using default innermost maximum threshold i_radial=  2 for radial functions.
  Species O                   : Default cutoff onset for free atom density etc. : 0.35000000E+01 AA.
  Species O                   : Basic radial grid will be enhanced according to radial_multiplier =   1, to contain    36 grid points.
 
  Reading configuration options for species O1                  .
  | Found nuclear charge :   8.0000
  | Found atomic mass :    15.9994000000000      amu
  | Found l_max for Hartree potential  :   6
  | Found cutoff potl. onset [A], width [A], scale factor :    4.00000    2.00000    1.00000
  | Threshold for basis-dependent cutoff potential is   0.100000E-03
  | Found data for basic radial integration grid :    36 points, outermost radius =    7.000 A
  | Found multiplier for basic radial grid :   2
  | Found angular grid specification: user-specified.
  | Specified grid contains     6 separate shells.
  | Check grid settings after all constraints further below.
  | Found free-atom valence shell :  2 s   2.000
  | Found free-atom valence shell :  2 p   4.000
  | Found free-ion valence shell :  2 s   1.000
  | Found free-ion valence shell :  2 p   3.000
  | Found hydrogenic basis function :  2 p   1.800
  | Found hydrogenic basis function :  3 d   7.600
  | Found hydrogenic basis function :  3 s   6.400
  | Found hydrogenic basis function :  4 f  11.600
  | Found hydrogenic basis function :  3 p   6.200
  | Found hydrogenic basis function :  3 d   5.600
  | Found hydrogenic basis function :  5 g  17.600
  | Found hydrogenic basis function :  1 s   0.750
  | Found ionic basis function :  2 p , default cutoff radius.
  | Found hydrogenic basis function :  4 f  10.800
  | Found hydrogenic basis function :  4 d   4.700
  | Found hydrogenic basis function :  2 s   6.800
  | Found hydrogenic basis function :  1 s  12.000
  | Found hydrogenic basis function :  1 s  10.000
  | Found hydrogenic basis function :  1 s   6.000
  | Found hydrogenic basis function :  2 s  10.000
  | Found hydrogenic basis function :  2 p   8.000
  | Found hydrogenic basis function :  2 p   6.000
  | Found hydrogenic basis function :  3 d   8.000
  Species O1                  : Missing cutoff potential type.
  Defaulting to exp(1/x)/(1-x)^2 type cutoff potential.
  Species O1: No 'logarithmic' tag. Using default grid for free atom:
  | Default logarithmic grid data [bohr] : 0.1000E-03 0.1000E+03 0.1012E+01
  | Will include ionic basis functions of  2.0-fold positive O1                   ion.
  Species O1: On-site basis accuracy parameter (for Gram-Schmidt orthonormalisation) not specified.
  Using default value basis_acc =  0.1000000E-03.
  Species O1                  : Using default innermost maximum threshold i_radial=  2 for radial functions.
  Species O1                  : Default cutoff onset for free atom density etc. : 0.40000000E+01 AA.
  Species O1                  : Basic radial grid will be enhanced according to radial_multiplier =   2, to contain    73 grid points.
 
  Finished reading input file 'control.in'.
 
------------------------------------------------------------


------------------------------------------------------------
          Reading geometry description geometry.in.
------------------------------------------------------------
  | The smallest distance between any two atoms is         1.95947270 AA.
  | The first atom of this pair is atom number                      2 .
  | The second atom of this pair is atom number                     3 .
  | Wigner-Seitz cell of the first atom image           0     0     0 .
  | (The Wigner-Seitz cell of the second atom is 0 0 0  by definition.)

  Symmetry information by spglib:
  | Precision set to  0.1E-04
  | Number of Operations  : 2
  | Space group           : 6
  | International         : Pm      /op
  | Schoenflies           : Cs^1
  Input structure read successfully.
  The structure contains       12 atoms,  and a total of        152.000 electrons.

  Input geometry:
  | Unit cell:
  |        6.56612700        0.00000000        0.00000000
  |        0.00000000        2.97288300        0.00000000
  |        0.00000000        0.00000000       22.33245700
  | Atomic structure:
  |       Atom                x [A]            y [A]            z [A]
  |    1: Species O             6.56608760        0.00000000        8.23167665
  |    2: Species O             2.00631950        1.48644150        9.50842322
  |    3: Species Ti            3.28304380        0.00000000        9.50844555
  |    4: Species Ti            6.56610730        1.48644150        9.50844555
  |    5: Species O             4.55977467        1.48644150        9.50846788
  |    6: Species O             0.00000657        0.00000000       10.78521445
  |    7: Species O             3.28300440        0.00000000       11.51490515
  |    8: Species O             5.28936330        1.48644150       12.79165172
  |    9: Species Ti            6.56609417        0.00000000       12.79167405
  |   10: Species Ti            3.28303067        1.48644150       12.79167405
  |   11: Species O             1.27669147        1.48644150       12.79171872
  |   12: Species O             3.28305037        0.00000000       14.06844295

  Lattice parameters for 3D lattice (in Angstroms) :     6.566127    2.972883   22.332457
  Angle(s) between unit vectors (in degrees)       :    90.000000   90.000000   90.000000


  Quantities derived from the lattice vectors (in Angstrom^-1):
  | Reciprocal lattice vector 1:  0.956909  0.000000  0.000000
  | Reciprocal lattice vector 2:  0.000000  2.113499  0.000000
  | Reciprocal lattice vector 3:  0.000000  0.000000  0.281348
  | Unit cell volume                               :   0.435937E+03  Angstrom^3

  Fractional coordinates:
                         L1                L2                L3
       atom_frac         0.99999400        0.00000000        0.36859700  O
       atom_frac         0.30555600        0.50000000        0.42576700  O
       atom_frac         0.49999700        0.00000000        0.42576800  Ti
       atom_frac         0.99999700        0.50000000        0.42576800  Ti
       atom_frac         0.69443900        0.50000000        0.42576900  O
       atom_frac         0.00000100        0.00000000        0.48293900  O
       atom_frac         0.49999100        0.00000000        0.51561300  O
       atom_frac         0.80555300        0.50000000        0.57278300  O
       atom_frac         0.99999500        0.00000000        0.57278400  Ti
       atom_frac         0.49999500        0.50000000        0.57278400  Ti
       atom_frac         0.19443600        0.50000000        0.57278600  O
       atom_frac         0.49999800        0.00000000        0.62995500  O

  Slab Identifier: This is Z-oriented slab and maximum thickness of the vacuum is: 16.496 Angstrom.
 
  Finished reading input file 'geometry.in'.
 

 
  Consistency checks for stacksize environment parameter are next.
 
  | Maximum stacksize for task 0: unlimited
  | Maximum stacksize for task 1: unlimited
  | Maximum stacksize for task 2: unlimited
  | Maximum stacksize for task 3: unlimited
  | Maximum stacksize for task 4: unlimited
  | Maximum stacksize for task 5: unlimited
  | Maximum stacksize for task 6: unlimited
  | Maximum stacksize for task 7: unlimited
  | Maximum stacksize for task 8: unlimited
  | Maximum stacksize for task 9: unlimited
  | Maximum stacksize for task 10: unlimited
  | Maximum stacksize for task 11: unlimited
  | Maximum stacksize for task 12: unlimited
  | Maximum stacksize for task 13: unlimited
  | Maximum stacksize for task 14: unlimited
  | Maximum stacksize for task 15: unlimited
  | Maximum stacksize for task 16: unlimited
  | Maximum stacksize for task 17: unlimited
  | Maximum stacksize for task 18: unlimited
  | Maximum stacksize for task 19: unlimited
  | Maximum stacksize for task 20: unlimited
  | Maximum stacksize for task 21: unlimited
  | Maximum stacksize for task 22: unlimited
  | Maximum stacksize for task 23: unlimited
  | Maximum stacksize for task 24: unlimited
  | Maximum stacksize for task 25: unlimited
  | Maximum stacksize for task 26: unlimited
  | Maximum stacksize for task 27: unlimited
  | Maximum stacksize for task 28: unlimited
  | Maximum stacksize for task 29: unlimited
  | Maximum stacksize for task 30: unlimited
  | Maximum stacksize for task 31: unlimited
  | Current stacksize for task 0: unlimited
  | Current stacksize for task 1: unlimited
  | Current stacksize for task 2: unlimited
  | Current stacksize for task 3: unlimited
  | Current stacksize for task 4: unlimited
  | Current stacksize for task 5: unlimited
  | Current stacksize for task 6: unlimited
  | Current stacksize for task 7: unlimited
  | Current stacksize for task 8: unlimited
  | Current stacksize for task 9: unlimited
  | Current stacksize for task 10: unlimited
  | Current stacksize for task 11: unlimited
  | Current stacksize for task 12: unlimited
  | Current stacksize for task 13: unlimited
  | Current stacksize for task 14: unlimited
  | Current stacksize for task 15: unlimited
  | Current stacksize for task 16: unlimited
  | Current stacksize for task 17: unlimited
  | Current stacksize for task 18: unlimited
  | Current stacksize for task 19: unlimited
  | Current stacksize for task 20: unlimited
  | Current stacksize for task 21: unlimited
  | Current stacksize for task 22: unlimited
  | Current stacksize for task 23: unlimited
  | Current stacksize for task 24: unlimited
  | Current stacksize for task 25: unlimited
  | Current stacksize for task 26: unlimited
  | Current stacksize for task 27: unlimited
  | Current stacksize for task 28: unlimited
  | Current stacksize for task 29: unlimited
  | Current stacksize for task 30: unlimited
  | Current stacksize for task 31: unlimited
 
  Consistency checks for the contents of control.in are next.
 
  MPI_IN_PLACE appears to work with this MPI implementation.
  | Keeping use_mpi_in_place .true. (see manual).
  Target number of points in a grid batch is not set. Defaulting to  100
  Method for grid partitioning is not set. Defaulting to parallel hash+maxmin partitioning.
  Batch size limit is not set. Defaulting to    200
  By default, will store active basis functions for each batch.
  If in need of memory, prune_basis_once .false. can be used to disable this option.
  communication_type for Hartree potential was not specified.
  Defaulting to calc_hartree .
  Defaulting to Pulay charge density mixer.
  Pulay mixer: Number of relevant iterations not set.
  Defaulting to    8 iterations.
  Pulay mixer: Number of initial linear mixing iterations not set.
  Defaulting to    0 iterations.
  Work space size for distributed Hartree potential not set.
  Defaulting to   0.200000E+03 MB.
  Mixing parameter for charge density mixing has not been set.
  Using default: charge_mix_param =     0.0500.
  The mixing parameter will be adjusted in iteration number     2 of each s.c.f. cycle (i.e., each geometry step).
  Algorithm-dependent basis array size parameters:
  | n_max_pulay                         :        8
  Maximum number of self-consistency iterations not provided.
  Presetting  1000 iterations.
  Presetting      1001 iterations before the initial mixing cycle
  is restarted anyway using the sc_init_iter criterion / keyword.
  Presetting a factor      1.000 between actual scf density residual
  and density convergence criterion sc_accuracy_rho below which sc_init_iter
  takes no effect.
 * No s.c.f. convergence criteria (sc_accuracy_*) were provided in control.in.
 * The run will proceed with a reasonable default guess, but please check whether.
 * the s.c.f. cycles seem to take too much or too little time.
  Calculation of forces was not defined in control.in. No forces will be calculated.
  Geometry relaxation not requested: no relaxation will be performed.
 * Notice: The s.c.f. convergence criterion sc_accuracy_rho was not provided.
 * We used to stop in this case, and ask the user to provide reasonable
 * scf convergence criteria. However, this led some users to employ criteria
 * that led to extremely long run times, e.g., for simple relaxation.
 * We now preset a default value for sc_accuracy_rho if it is not set.
 * You may still wish to check if this setting is too tight or too loose for your needs.
 * Based on n_atoms and forces and force-correction status, FHI-aims chose sc_accuracy_rho =  0.141421E-05 .
  No accuracy limit for integral partition fn. given. Defaulting to  0.1000E-14.
  No threshold value for u(r) in integrations given. Defaulting to  0.1000E-05.
  No occupation type (smearing scheme) given. Defaulting to Gaussian broadening, width =  0.1000E-01 eV.
  The width will be adjusted in iteration number     2 of each s.c.f. cycle (i.e., each geometry step).
  No accuracy for occupation numbers given. Defaulting to  0.1000E-12.
  No threshold value for occupation numbers given. Defaulting to  0.0000E+00.
  No accuracy for fermi level given. Defaulting to  0.1000E-19.
  Maximum # of iterations to find E_F not set. Defaulting to  200.
  Preferred method for the eigenvalue solver ('KS_method') not specified in 'control.in'.
  Defaulting to serial version, LAPACK (via ELSI), since more k-points than CPUs available.
  Will not use alltoall communication since running on < 1024 CPUs.
  Threshold for basis singularities not set.
  Default threshold for basis singularities:  0.1000E-04
  partition_type (choice of integration weights) for integrals was not specified.
  | Using a version of the partition function of Stratmann and coworkers ('stratmann_sparse').
  | At each grid point, the set of atoms used to build the partition table is smoothly restricted to
  | only those atoms whose free-atom density would be non-zero at that grid point.
  Partitioning for Hartree potential was not defined. Using partition_type for integrals.
  | Adjusted default value of keyword multip_moments_threshold to:       0.10000000E-11
  | This value may affect high angular momentum components of the Hartree potential in periodic systems.
  Angular momentum expansion for Kerker preconditioner not set explicitly.
  | Using default value of   0
  No explicit requirement for turning off preconditioner.
  | By default, it will be turned off when the charge convergence reaches
  | sc_accuracy_rho  =   0.141421E-05
  No special mixing parameter while Kerker preconditioner is on.
  Using default: charge_mix_param =     0.0500.
  No q(lm)/r^(l+1) cutoff set for long-range Hartree potential.
  | Using default value of  0.100000E-09 .
  | Verify using the multipole_threshold keyword.
  Defaulting to new monopole extrapolation.
  Density update method: automatic selection selected.
  Using density matrix based charge density update.
  Using density matrix based charge density update.
  Using packed matrix style: index .
  Defaulting to use time-reversal symmetry for k-point grid.
  Charge integration errors on the 3D integration grid will be compensated
  by explicit normalization and distribution of residual charges.
  Use the "compensate_multipole_errors" flag to change this behaviour.
  Set 'collect_eigenvectors' to be '.true.' for all serial calculations. This is mandatory.
  Set 'collect_eigenvectors' to be '.true.' for KS_method lapack_fast and serial.
  Found potential conflicts with setting 'use_local_index' for this calculation. Will not set it.
 
  Consistency checks for the contents of geometry.in are next.
 

  Range separation radius for Ewald summation (hartree_convergence_parameter):      4.81466675 bohr.
  Number of empty states per atom not set in control.in - providing a guess from actual geometry.
  | Total number of empty states used during s.c.f. cycle:       46
  If you use a very high smearing, use empty_states (per atom!) in control.in to increase this value.

  Structure-dependent array size parameters: 
  | Maximum number of distinct radial functions  :       39
  | Maximum number of basis functions            :      236
  | Number of Kohn-Sham states (occupied + empty):      122
------------------------------------------------------------
  After read_input_data [GB]:    997.58

  Performing system and environment tests:
  *** Environment variable OMP_NUM_THREADS is not set
  *** For performance reasons you might want to set it to 1
  | Checking for ScaLAPACK...
  | Testing pdtran()...
  | All pdtran() tests passed.
  After prepare_system [GB]:    997.44

------------------------------------------------------------
          Preparing all fixed parts of the calculation.
------------------------------------------------------------
  Determining machine precision:
    2.225073858507201E-308
  Setting up grids for atomic and cluster calculations.

  Creating wave function, potential, and density for free atoms.
  Runtime choices for atomic solver:
  | atomic solver xc        : PBE
  | compute density gradient: 1
  | compute kinetic density : F

  Species: Ti

  List of occupied orbitals and eigenvalues:
    n    l              occ      energy [Ha]    energy [eV]
    1    0           2.0000      -179.959082     -4896.9358
    2    0           2.0000       -19.727662      -536.8170
    3    0           2.0000        -2.283029       -62.1244
    4    0           2.0000        -0.148384        -4.0377
    2    1           6.0000       -16.317278      -444.0157
    3    1           6.0000        -1.409348       -38.3503
    3    2           2.0000        -0.139340        -3.7916


  Species: O

  List of occupied orbitals and eigenvalues:
    n    l              occ      energy [Ha]    energy [eV]
    1    0           2.0000       -18.926989      -515.0296
    2    0           2.0000        -0.880247       -23.9527
    2    1           4.0000        -0.331514        -9.0210


  Species: O1

  List of occupied orbitals and eigenvalues:
    n    l              occ      energy [Ha]    energy [eV]
    1    0           2.0000       -18.927378      -515.0401
    2    0           2.0000        -0.880539       -23.9607
    2    1           4.0000        -0.331811        -9.0290


  Adding cutoff potential to free-atom effective potential.
  Creating fixed part of basis set: Ionic, confined, hydrogenic.
 
  Ti                   ion:

  List of free ionic orbitals and eigenvalues:
    n    l      energy [Ha]    energy [eV]
    1    0      -180.819616     -4920.3521
    2    0       -20.608761      -560.7929
    3    0        -3.115729       -84.7833
    4    0        -0.697188       -18.9715
    2    1       -17.196209      -467.9327
    3    1        -2.231296       -60.7167
    3    2        -0.911363       -24.7995


  List of ionic basis orbitals and eigenvalues:
    n    l      energy [Ha]    energy [eV]    outer radius [A]
    4    1        -0.517739       -14.0884       4.592117
    4    0        -0.696824       -18.9615       4.536321

 
  Ti                   hydrogenic:
 
  List of hydrogenic basis orbitals: 
    n    l      effective z      eigenvalue [eV]  inner max. [A]     outer max. [A]     outer radius [A]   
    4    3         8.000000       -54.4222           1.059019           1.059019           4.267343
    3    2         2.700000       -10.7798           1.726925           1.726925           4.592117
 
 
  O                    hydrogenic:
 
  List of hydrogenic basis orbitals: 
    n    l      effective z      eigenvalue [eV]  inner max. [A]     outer max. [A]     outer radius [A]   
    2    1         1.800000       -10.9749           1.164242           1.164242           4.578029
    3    2         7.600000       -87.3180           0.624125           0.624125           3.251020
    3    0         6.400000       -61.9207           0.061167           1.081902           4.001998
 
 
  O1                   ion:

  List of free ionic orbitals and eigenvalues:
    n    l      energy [Ha]    energy [eV]
    1    0       -20.485570      -557.4407
    2    0        -2.134830       -58.0917
    2    1        -1.577627       -42.9294


  List of ionic basis orbitals and eigenvalues:
    n    l      energy [Ha]    energy [eV]    outer radius [A]
    2    1        -1.577621       -42.9293       3.541477

 
  O1                   hydrogenic:
 
  List of hydrogenic basis orbitals: 
    n    l      effective z      eigenvalue [eV]  inner max. [A]     outer max. [A]     outer radius [A]   
    2    1         1.800000       -11.0118           1.178562           1.178562           5.432602
    3    2         7.600000       -87.3182           0.624125           0.624125           3.541477
    3    0         6.400000       -61.9209           0.061167           1.081902           4.306578
    4    3        11.600000      -114.4238           0.731631           0.731631           3.585037
    3    1         6.200000       -58.1113           0.255680           1.030270           4.306578
    3    2         5.600000       -47.4081           0.847233           0.847233           4.413171
    5    4        17.600000      -168.5799           0.749740           0.749740           3.372465
    1    0         0.750000        -7.6499           0.705284           0.705284           5.366593
    4    3        10.800000       -99.1854           0.787313           0.787313           3.764702
    4    2         4.700000       -18.6841           0.758962           2.365807           5.499423
    2    0         6.800000      -157.2818           0.059689           0.406863           2.739620
    1    0        12.000000     -1959.2197           0.043971           0.043971           0.816724
    1    0        10.000000     -1360.5692           0.052821           0.052821           0.981101
    1    0         6.000000      -489.8049           0.088266           0.088266           1.561224
    2    0        10.000000      -340.1423           0.040365           0.278524           2.093567
    2    1         8.000000      -217.6911           0.265231           0.265231           2.365807
    2    1         6.000000      -122.4512           0.351348           0.351348           2.841960
    3    2         8.000000       -96.7515           0.594340           0.594340           3.455938
 
  Creating atomic-like basis functions for current effective potential.

  Species Ti                  :

  List of atomic basis orbitals and eigenvalues:
    n    l      energy [Ha]    energy [eV]    outer radius [A]
    1    0      -179.959082     -4896.9358       0.490254
    2    0       -19.727662      -536.8170       1.491292
    3    0        -2.283029       -62.1244       4.014314
    4    0        -0.148384        -4.0377       4.592117
    2    1       -16.317278      -444.0157       1.585290
    3    1        -1.409348       -38.3503       4.267343
    3    2        -0.139340        -3.7916       4.536321


  Species O                   :

  List of atomic basis orbitals and eigenvalues:
    n    l      energy [Ha]    energy [eV]    outer radius [A]
    1    0       -18.926989      -515.0296       1.415765
    2    0        -0.880247       -23.9527       4.413171
    2    1        -0.331514        -9.0210       4.522403


  Species O1                  :

  List of atomic basis orbitals and eigenvalues:
    n    l      energy [Ha]    energy [eV]    outer radius [A]
    1    0       -18.927378      -515.0401       1.415765
    2    0        -0.880539       -23.9607       5.048385
    2    1        -0.331811        -9.0290       5.301386

  Assembling full basis from fixed parts.
  | Species Ti :   atomic orbital   1 s accepted.
  | Species Ti :   atomic orbital   2 s accepted.
  | Species Ti :   atomic orbital   3 s accepted.
  | Species Ti :    ionic orbital   4 s accepted.
  | Species Ti :   atomic orbital   4 s accepted.
  | Species Ti :   atomic orbital   2 p accepted.
  | Species Ti :   atomic orbital   3 p accepted.
  | Species Ti :    ionic orbital   4 p accepted.
  | Species Ti :   atomic orbital   3 d accepted.
  | Species Ti :    hydro orbital   3 d accepted.
  | Species Ti :    hydro orbital   4 f accepted.
  | Species O :   atomic orbital   1 s accepted.
  | Species O :    hydro orbital   3 s accepted.
  | Species O :   atomic orbital   2 s accepted.
  | Species O :   atomic orbital   2 p accepted.
  | Species O :    hydro orbital   2 p accepted.
  | Species O :    hydro orbital   3 d accepted.
  | Species O1 :    hydro orbital   1 s accepted.
  | Species O1 :    hydro orbital   1 s accepted.
  | Species O1 :   atomic orbital   1 s accepted.
  | Species O1 :    hydro orbital   1 s accepted.
  | Species O1 :    hydro orbital   2 s accepted.
  | Species O1 :    hydro orbital   2 s accepted.
  | Species O1 :    hydro orbital   3 s accepted.
  | Species O1 :   atomic orbital   2 s accepted.
  | Species O1 :    hydro orbital   1 s accepted.
  | Species O1 :    hydro orbital   2 p accepted.
  | Species O1 :    hydro orbital   2 p accepted.
  | Species O1 :    ionic orbital   2 p accepted.
  | Species O1 :    hydro orbital   3 p accepted.
  | Species O1 :   atomic orbital   2 p accepted.
  | Species O1 :    hydro orbital   2 p accepted.
  | Species O1 :    hydro orbital   3 d accepted.
  | Species O1 :    hydro orbital   3 d accepted.
  | Species O1 :    hydro orbital   3 d accepted.
  | Species O1 :    hydro orbital   4 d accepted.
  | Species O1 :    hydro orbital   4 f accepted.
  | Species O1 :    hydro orbital   4 f accepted.
  | Species O1 :    hydro orbital   5 g accepted.
 
  Basis size parameters after reduction:
  | Total number of radial functions:       39
  | Total number of basis functions :      236
 
  Per-task memory consumption for arrays in subroutine allocate_ext:
  |          13.817356MB.
  Testing on-site integration grid accuracy.
  |  Species  Function  <phi|h_atom|phi> (log., in eV)  <phi|h_atom|phi> (rad., in eV)
           1        1              -4896.9357674450              -4896.9322830202
           1        2               -536.8170048508               -536.8169722333
           1        3                -62.1243896260                -62.1243889283
           1        4                 -3.2653235630                 -3.2692838808
           1        5                  6.7987747276                  6.5460721883 ***
           1        6               -444.0157161949               -444.0157165810
           1        7                -38.3503235548                -38.3503234963
           1        8                  0.2923930877                  0.2745948116
           1        9                 -3.7933400649                 -3.7959244177
           1       10                  6.3288803616                  6.2510614929 ***
           1       11                 27.8451455747                 27.8452636416
           2       12               -515.0295626295               -515.0294562738
           2       13                 15.1698434419                 15.1699322204
           2       14                -21.6038822678                -21.6039118105
           2       15                 -9.0211123393                 -9.0212703513
           2       16                  8.3047696391                  8.2854840999
           2       17                 45.8428042125                 45.8427461222
           3       18               -272.9322507263               -272.9201922371
           3       19               1665.9089384428               1665.9689459310 ***
           3       20               2095.2037268945               2095.2740316190 ***
           3       21               3047.3679718515               3047.0126721058 ***
           3       22               3234.6000205573               3231.5687071925 ***
           3       23               2428.4660356492               2422.2375593106 ***
           3       24                896.7802862158                893.3913916681 ***
           3       25               3128.2108268826               3108.2674944362 ***
           3       26                 71.8616615187                 71.1575837008 ***
           3       27                 15.4122562036                 15.4122564500
           3       28                101.7989356251                101.7989355629
           3       29                121.1064459338                121.1064460856
           3       30                271.5759585347                271.5759823164
           3       31                159.3966255928                159.3962927972
           3       32                153.6473243407                153.6504704037
           3       33                 50.7421815376                 50.7421815946
           3       34                 88.5010368311                 88.5010331056
           3       35                 82.9872957917                 82.9873669214
           3       36                 36.7418806245                 36.7419113216
           3       37                 85.4133898762                 85.4133899074
           3       38                115.1018427582                115.1018451832
           3       39                142.1023296234                142.1023296272
 * Note: Onsite integrals marked "***" above are less accurate than
 * onsite_accuracy_threshold =    0.03000 eV. Usually, this is harmless.
 * When in doubt, tighten the "radial" and/or "radial_multiplier" flags to check.

  Preparing densities etc. for the partition functions (integrals / Hartree potential).

  Preparations completed.
  max(cpu_time)          :      0.339 s.
  Wall clock time (cpu1) :      0.338 s.
------------------------------------------------------------
  After prepare_scf [GB]:    995.26

  Initializing index lists of integration centers etc. from given atomic structure:
  Mapping all atomic coordinates to central unit cell.

  Initializing the k-points
  Using symmetry for reducing the k-points
  | k-points reduced from:       64 to       36
  | Number of k-points                             :        36
  The eigenvectors in the calculations are COMPLEX.
  | K-points in task   0:         1
  | K-points in task   1:         2
  | K-points in task   2:         2
  | K-points in task   3:         2
  | K-points in task   4:         2
  | K-points in task   5:         1
  | K-points in task   6:         1
  | K-points in task   7:         1
  | K-points in task   8:         1
  | K-points in task   9:         1
  | K-points in task  10:         1
  | K-points in task  11:         1
  | K-points in task  12:         1
  | K-points in task  13:         1
  | K-points in task  14:         1
  | K-points in task  15:         1
  | K-points in task  16:         1
  | K-points in task  17:         1
  | K-points in task  18:         1
  | K-points in task  19:         1
  | K-points in task  20:         1
  | K-points in task  21:         1
  | K-points in task  22:         1
  | K-points in task  23:         1
  | K-points in task  24:         1
  | K-points in task  25:         1
  | K-points in task  26:         1
  | K-points in task  27:         1
  | K-points in task  28:         1
  | K-points in task  29:         1
  | K-points in task  30:         1
  | K-points in task  31:         1
  | Number of basis functions in the Hamiltonian integrals :      3790
  | Number of basis functions in a single unit cell        :       236
  | Number of centers in hartree potential         :      1291
  | Number of centers in hartree multipole         :       593
  | Number of centers in electron density summation:       467
  | Number of centers in basis integrals           :       491
  | Number of centers in integrals                 :       232
  | Number of centers in hamiltonian               :       643
  | Consuming         63 KiB for k_phase.
  | Number of super-cells (origin) [n_cells]                     :         675
  | Number of super-cells (after PM_index) [n_cells]             :         112
  | Number of super-cells in hamiltonian [n_cells_in_hamiltonian]:         112
  | Size of matrix packed + index [n_hamiltonian_matrix_size] :      279949
  After initialize_bc_dependent_lists [GB]:    995.26

------------------------------------------------------------
          Begin self-consistency loop: Initialization.

          Date     :  20241014, Time     :  145950.811
------------------------------------------------------------
  Available memory per node after initialize_hartree_non_periodic_ewald [GB]:    995.26
  | Estimated reciprocal-space cutoff momentum G_max:         1.91888898 bohr^-1 .
  | Reciprocal lattice points for long-range Hartree potential:     344
  Available memory per node after initialize_recip_hartree_potential [GB]:    995.26
  Available memory per node after initialize_scalapack [GB]:    995.26
  Available memory per node after aims_elsi_init_scf [GB]:    995.26
  Available memory per node after initialize_fixed_grids [GB]:    995.26
  Partitioning the integration grid into batches with parallel hashing+maxmin method.
  | Number of batches:      876
  | Maximal batch size:     170
  | Minimal batch size:      53
  | Average batch size:      87.507
  | Standard deviation of batch sizes:      33.093

  Integration load balanced across    32 MPI tasks.
  Work distribution over tasks is as follows:
  Task     0 has       2405 integration points.
  Task     1 has       2408 integration points.
  Task     2 has       2401 integration points.
  Task     3 has       2402 integration points.
  Task     4 has       2403 integration points.
  Task     5 has       2396 integration points.
  Task     6 has       2398 integration points.
  Task     7 has       2411 integration points.
  Task     8 has       2358 integration points.
  Task     9 has       2411 integration points.
  Task    10 has       2423 integration points.
  Task    11 has       2407 integration points.
  Task    12 has       2395 integration points.
  Task    13 has       2408 integration points.
  Task    14 has       2403 integration points.
  Task    15 has       2417 integration points.
  Task    16 has       2389 integration points.
  Task    17 has       2391 integration points.
  Task    18 has       2414 integration points.
  Task    19 has       2366 integration points.
  Task    20 has       2410 integration points.
  Task    21 has       2362 integration points.
  Task    22 has       2407 integration points.
  Task    23 has       2370 integration points.
  Task    24 has       2372 integration points.
  Task    25 has       2417 integration points.
  Task    26 has       2412 integration points.
  Task    27 has       2384 integration points.
  Task    28 has       2381 integration points.
  Task    29 has       2359 integration points.
  Task    30 has       2411 integration points.
  Task    31 has       2365 integration points.
  Available memory per node after partition_grid [GB]:    995.26
  Initializing partition tables, free-atom densities, potentials, etc. across the integration grid (initialize_grid_storage).
  | initialize_grid_storage: Actual outermost partition radius vs. multipole_radius_free
  | (-- VB: in principle, multipole_radius_free should be larger, hence this output)
  | Species        1: Confinement radius =              4.999999999999999 AA, multipole_radius_free =              5.002391649902235 AA.
  | Species        1: outer_partition_radius set to              5.002391649902235 AA .
  | Species        2: Confinement radius =              4.999999999999999 AA, multipole_radius_free =              5.048384829883283 AA.
  | Species        2: outer_partition_radius set to              5.048384829883283 AA .
  | Species        3: Confinement radius =              6.000000000000000 AA, multipole_radius_free =              6.064445521808699 AA.
  | Species        3: outer_partition_radius set to              6.064445521808699 AA .
  | The sparse table of interatomic distances needs       1310.64 kbyte instead of      1928.65 kbyte of memory.
  | Net number of integration points:    76656
  | of which are non-zero points    :    64382
  | Numerical average free-atom electrostatic potential    :     -5.20581701 eV
  Available memory per node after initialize_grid_storage_p1 [GB]:    995.26
  Renormalizing the initial density to the exact electron count on the 3D integration grid.
  | Initial density: Formal number of electrons (from input files) :     152.0000000000
  | Integrated number of electrons on 3D grid     :     151.9995473188
  | Charge integration error                      :      -0.0004526812
  | Normalization factor for density and gradient :       1.0000029782
  Renormalizing the free-atom superposition density to the exact electron count on the 3D integration grid.
  | Formal number of electrons (from input files) :     152.0000000000
  | Integrated number of electrons on 3D grid     :     151.9995473188
  | Charge integration error                      :      -0.0004526812
  | Normalization factor for density and gradient :       1.0000029782
  Obtaining max. number of non-zero basis functions in each batch (get_n_compute_maxes).
  | Maximal number of non-zero basis functions:      717 in task     0
  | Maximal number of non-zero basis functions:      709 in task     1
  | Maximal number of non-zero basis functions:      681 in task     2
  | Maximal number of non-zero basis functions:      688 in task     3
  | Maximal number of non-zero basis functions:      678 in task     4
  | Maximal number of non-zero basis functions:      687 in task     5
  | Maximal number of non-zero basis functions:      712 in task     6
  | Maximal number of non-zero basis functions:      675 in task     7
  | Maximal number of non-zero basis functions:      710 in task     8
  | Maximal number of non-zero basis functions:      692 in task     9
  | Maximal number of non-zero basis functions:      689 in task    10
  | Maximal number of non-zero basis functions:      694 in task    11
  | Maximal number of non-zero basis functions:      644 in task    12
  | Maximal number of non-zero basis functions:      681 in task    13
  | Maximal number of non-zero basis functions:      676 in task    14
  | Maximal number of non-zero basis functions:      676 in task    15
  | Maximal number of non-zero basis functions:      701 in task    16
  | Maximal number of non-zero basis functions:      686 in task    17
  | Maximal number of non-zero basis functions:      681 in task    18
  | Maximal number of non-zero basis functions:      689 in task    19
  | Maximal number of non-zero basis functions:      720 in task    20
  | Maximal number of non-zero basis functions:      697 in task    21
  | Maximal number of non-zero basis functions:      693 in task    22
  | Maximal number of non-zero basis functions:      667 in task    23
  | Maximal number of non-zero basis functions:      707 in task    24
  | Maximal number of non-zero basis functions:      688 in task    25
  | Maximal number of non-zero basis functions:      677 in task    26
  | Maximal number of non-zero basis functions:      667 in task    27
  | Maximal number of non-zero basis functions:      644 in task    28
  | Maximal number of non-zero basis functions:      701 in task    29
  | Maximal number of non-zero basis functions:      710 in task    30
  | Maximal number of non-zero basis functions:      700 in task    31
  Available memory per node after get_n_compute_maxes_p1 [GB]:    995.26
  Allocating        0.439 MB for KS_eigenvector_complex
  Available memory per node after allocate_matrices [GB]:    995.26
  Available memory per node after init_comm_sparse_local_matrix_scalapack [GB]:    995.26
  Integrating Hamiltonian matrix: batch-based integration.
  Time summed over all CPUs for integration: real work        3.471 s, elapsed        5.572 s => Consider using load balancing!
  Available memory per node after integrate hamiltonian matrix [GB]:    995.26
  Integrating overlap matrix.
  Time summed over all CPUs for integration: real work        2.301 s, elapsed        3.796 s
  Available memory per node after integrate ovlp matrix [GB]:    995.26
  Available memory per node after ASI_callbacks invoke [GB]:    995.26
  Available memory per node after save_overlap_scalapack [GB]:    995.26

  Updating Kohn-Sham eigenvalues and eigenvectors using ELSI and the (modified) LAPACK eigensolver.
  Singularity check in k-point 32, task 0 (analysis for other k-points/tasks may follow below):
  Overlap matrix is not singular
  | Lowest and highest eigenvalues :  0.2819E-02,  0.7704E+01
  Finished singularity check of overlap matrix
  | Time :     0.009 s
  Starting LAPACK eigensolver
  Finished Cholesky decomposition
  | Time :     0.002 s
  Finished transformation to standard eigenproblem
  | Time :     0.003 s
  Finished solving standard eigenproblem
  | Time :     0.011 s
  Finished back-transformation of eigenvectors
  | Time :     0.001 s

  Obtaining occupation numbers and electronic chemical potential using ELSI.
  | Note that, for insulating systems, the printed 'chemical potential' value is not uniquely defined.
  | It can be anywhere in the energy gap, as long as it correctly separates occupied and unoccupied states.
  | In systems with a gap, the physically relevant chemical potential is the VBM or HOMO.

  | Chemical potential (Fermi level):    -9.27612664 eV
  Available memory per node after advance_KS_solution [GB]:    995.26
  Writing Kohn-Sham eigenvalues.
  K-point:       1 at    0.000000    0.000000    0.000000 (in units of recip. lattice)

  State    Occupation    Eigenvalue [Ha]    Eigenvalue [eV]
      1       2.00000        -179.969191        -4897.21085
      2       2.00000        -179.969191        -4897.21085
      3       2.00000        -179.968062        -4897.18014
      4       2.00000        -179.968062        -4897.18014
      5       2.00000         -19.738763         -537.11906
      6       2.00000         -19.738763         -537.11906
      7       2.00000         -19.737529         -537.08548
      8       2.00000         -19.737529         -537.08548
      9       2.00000         -19.034879         -517.96542
     10       2.00000         -19.034879         -517.96542
     11       2.00000         -19.034758         -517.96211
     12       2.00000         -19.034758         -517.96211
     13       2.00000         -19.034757         -517.96210
     14       2.00000         -19.034757         -517.96210
     15       2.00000         -19.002093         -517.07327
     16       2.00000         -19.002093         -517.07327
     17       2.00000         -16.328416         -444.31882
     18       2.00000         -16.328416         -444.31882
     19       2.00000         -16.328096         -444.31010
     20       2.00000         -16.328096         -444.31010
     21       2.00000         -16.328090         -444.30993
     22       2.00000         -16.328090         -444.30993
     23       2.00000         -16.327247         -444.28698
     24       2.00000         -16.327247         -444.28698
     25       2.00000         -16.326938         -444.27858
     26       2.00000         -16.326938         -444.27858
     27       2.00000         -16.326773         -444.27409
     28       2.00000         -16.326773         -444.27409
     29       2.00000          -2.309144          -62.83499
     30       2.00000          -2.309119          -62.83431
     31       2.00000          -2.306309          -62.75787
     32       2.00000          -2.306284          -62.75718
     33       2.00000          -1.448899          -39.42656
     34       2.00000          -1.448571          -39.41763
     35       2.00000          -1.446410          -39.35883
     36       2.00000          -1.446148          -39.35169
     37       2.00000          -1.441209          -39.21730
     38       2.00000          -1.441059          -39.21321
     39       2.00000          -1.439150          -39.16126
     40       2.00000          -1.439002          -39.15725
     41       2.00000          -1.438889          -39.15417
     42       2.00000          -1.438699          -39.14900
     43       2.00000          -1.433108          -38.99686
     44       2.00000          -1.432991          -38.99367
     45       2.00000          -1.057867          -28.78603
     46       2.00000          -1.049196          -28.55009
     47       2.00000          -1.033923          -28.13447
     48       2.00000          -1.028012          -27.97362
     49       2.00000          -1.006686          -27.39333
     50       2.00000          -1.005197          -27.35279
     51       2.00000          -0.982333          -26.73065
     52       2.00000          -0.981351          -26.70392
     53       2.00000          -0.574669          -15.63754
     54       2.00000          -0.572604          -15.58134
     55       2.00000          -0.543917          -14.80074
     56       2.00000          -0.541308          -14.72973
     57       2.00000          -0.529664          -14.41290
     58       2.00000          -0.514950          -14.01252
     59       2.00000          -0.513979          -13.98609
     60       2.00000          -0.504421          -13.72601
     61       2.00000          -0.502141          -13.66395
     62       2.00000          -0.489794          -13.32797
     63       2.00000          -0.479405          -13.04527
     64       2.00000          -0.477066          -12.98162
     65       2.00000          -0.475839          -12.94825
     66       2.00000          -0.464828          -12.64861
     67       2.00000          -0.460159          -12.52155
     68       2.00000          -0.456835          -12.43110
     69       2.00000          -0.446169          -12.14089
     70       2.00000          -0.434881          -11.83371
     71       2.00000          -0.434819          -11.83202
     72       2.00000          -0.433592          -11.79865
     73       2.00000          -0.432375          -11.76552
     74       2.00000          -0.428783          -11.66777
     75       2.00000          -0.413905          -11.26294
     76       2.00000          -0.410760          -11.17734
     77       0.00000          -0.188041           -5.11685
     78       0.00000          -0.187691           -5.10733
     79       0.00000          -0.177516           -4.83046
     80       0.00000          -0.175039           -4.76305
     81       0.00000          -0.155873           -4.24153
     82       0.00000          -0.155421           -4.22922
     83       0.00000          -0.151998           -4.13609
     84       0.00000          -0.145606           -3.96214
     85       0.00000          -0.145206           -3.95125
     86       0.00000          -0.138344           -3.76453
     87       0.00000          -0.137201           -3.73342
     88       0.00000          -0.125296           -3.40947
     89       0.00000          -0.122727           -3.33958
     90       0.00000          -0.109553           -2.98108
     91       0.00000          -0.080082           -2.17914
     92       0.00000          -0.067817           -1.84539
     93       0.00000          -0.042894           -1.16721
     94       0.00000          -0.042610           -1.15948
     95       0.00000          -0.039866           -1.08481
     96       0.00000          -0.039606           -1.07775
     97       0.00000          -0.030196           -0.82167
     98       0.00000          -0.028313           -0.77042
     99       0.00000           0.032442            0.88280
    100       0.00000           0.065952            1.79464
    101       0.00000           0.085477            2.32594
    102       0.00000           0.100563            2.73645
    103       0.00000           0.102583            2.79144
    104       0.00000           0.114445            3.11419
    105       0.00000           0.172152            4.68449
    106       0.00000           0.185967            5.06041
    107       0.00000           0.236928            6.44713
    108       0.00000           0.249852            6.79881
    109       0.00000           0.316402            8.60973
    110       0.00000           0.328150            8.92943
    111       0.00000           0.330793            9.00135
    112       0.00000           0.359910            9.79365
    113       0.00000           0.376134           10.23514
    114       0.00000           0.376813           10.25359
    115       0.00000           0.409580           11.14524
    116       0.00000           0.425590           11.58089
    117       0.00000           0.471869           12.84020
    118       0.00000           0.487316           13.26054
    119       0.00000           0.498436           13.56312
    120       0.00000           0.500686           13.62437
    121       0.00000           0.524430           14.27048
    122       0.00000           0.530224           14.42813

  What follows are estimated values for band gap, HOMO, LUMO, etc.
  | They are estimated on a discrete k-point grid and not necessarily exact.
  | For converged numbers, create a DOS and/or band structure plot on a denser k-grid.

  Highest occupied state (VBM) at    -11.17733979 eV (relative to internal zero)
  | Occupation number:      2.00000000
  | K-point:       1 at    0.000000    0.000000    0.000000 (in units of recip. lattice)

  Lowest unoccupied state (CBM) at    -5.11684633 eV (relative to internal zero)
  | Occupation number:      0.00000000
  | K-point:       1 at    0.000000    0.000000    0.000000 (in units of recip. lattice)

  ESTIMATED overall HOMO-LUMO gap:      6.06049346 eV between HOMO at k-point 1 and LUMO at k-point 1
  | This appears to be a direct band gap.
  The gap value is above 0.2 eV. Unless you are using a very sparse k-point grid,
  this system is most likely an insulator or a semiconductor.
  Calculating total energy contributions from superposition of free atom densities.

  Total energy components:
  | Sum of eigenvalues            :       -2386.44742494 Ha      -64938.53846899 eV
  | XC energy correction          :        -236.41598054 Ha       -6433.20614848 eV
  | XC potential correction       :         305.66624689 Ha        8317.60177287 eV
  | Free-atom electrostatic energy:       -1711.24170909 Ha      -46565.25611843 eV
  | Hartree energy correction     :           0.00000000 Ha           0.00000000 eV
  | Entropy correction            :           0.00000000 Ha           0.00000000 eV
  | ---------------------------
  | Total energy                  :       -4028.43886767 Ha     -109619.39896303 eV
  | Total energy, T -> 0          :       -4028.43886767 Ha     -109619.39896303 eV  <-- do not rely on this value for anything but (periodic) metals
  | Electronic free energy        :       -4028.43886767 Ha     -109619.39896303 eV

  Derived energy quantities:
  | Kinetic energy                :        4053.16147475 Ha      110292.13533011 eV
  | Electrostatic energy          :       -7845.18436189 Ha     -213478.32814466 eV
  | Energy correction for multipole
  | error in Hartree potential    :           0.00000000 Ha           0.00000000 eV
  | Sum of eigenvalues per atom                           :       -5411.54487242 eV
  | Total energy (T->0) per atom                          :       -9134.94991359 eV  <-- do not rely on this value for anything but (periodic) metals
  | Electronic free energy per atom                       :       -9134.94991359 eV
  Initialize hartree_potential_storage
  Max. number of atoms included in rho_multipole:           12

  End scf initialization - timings             :  max(cpu_time)    wall_clock(cpu1)
  | Time for scf. initialization                :        0.554 s           0.555 s
  | Boundary condition initialization           :        0.042 s           0.042 s
  | Integration                                 :        0.310 s           0.310 s
  | Solution of K.-S. eqns.                     :        0.056 s           0.057 s
  | Grid partitioning                           :        0.063 s           0.063 s
  | Preloading free-atom quantities on grid     :        0.110 s           0.110 s
  | Free-atom superposition energy              :        0.014 s           0.014 s
  | Total energy evaluation                     :        0.000 s           0.001 s

  Partial memory accounting:
  | Current value for overall tracked memory usage:
  |   Minimum:        5.843 MB (on task  0)
  |   Maximum:        6.282 MB (on task  1)
  |   Average:        5.898 MB
  | Peak value for overall tracked memory usage:
  |   Minimum:       11.527 MB (on task 12 after allocating wave)
  |   Maximum:       12.892 MB (on task  1 after allocating wave)
  |   Average:       12.214 MB
  | Largest tracked array allocation so far:
  |   Minimum:        3.164 MB (hamiltonian_shell on task 12)
  |   Maximum:        3.955 MB (hamiltonian_shell on task 20)
  |   Average:        3.621 MB
  Note:  These values currently only include a subset of arrays which are explicitly tracked.
  The "true" memory usage will be greater.
------------------------------------------------------------
  Available memory after initialize_scf [GB]:    995.26
  Available memory after allocating mixing [GB]:    995.26
  Evaluating new KS density using the density matrix
  Evaluating density matrix
  Time summed over all CPUs for getting density from density matrix: real work        6.916 s, elapsed       10.086 s
  Integration grid: deviation in total charge (<rho> - N_e) =   2.842171E-14

  Time for density update prior                :  max(cpu_time)    wall_clock(cpu1)
  | self-consistency iterative process          :        0.322 s           0.322 s
  Available memory before start of SCF loop [GB]:    995.25

------------------------------------------------------------
          Begin self-consistency iteration #    1

  Date     :  20241014, Time     :  145951.688
------------------------------------------------------------
  Pulay mixing of updated and previous charge densities.
  Available memory per node after mixing [GB]:    995.25
  Renormalizing the density to the exact electron count on the 3D integration grid.
  | Formal number of electrons (from input files) :     152.0000000000
  | Integrated number of electrons on 3D grid     :     151.9985728858
  | Charge integration error                      :      -0.0014271142
  | Normalization factor for density and gradient :       1.0000093890

  Evaluating partitioned Hartree potential by multipole expansion.
  | Original multipole sum: apparent total charge =   0.512217E-13
  | Sum of charges compensated after spline to logarithmic grids =   0.116747E-04
  | Analytical far-field extrapolation by fixed multipoles:
  | Hartree multipole sum: apparent total charge =   0.512617E-13
  Summing up the Hartree potential.
  Time summed over all CPUs for potential: real work        0.045 s, elapsed        0.066 s
  | RMS charge density error from multipole expansion :   0.108291E-02
  | Average real-space part of the electrostatic potential :      0.01713666 eV

  Integrating Hamiltonian matrix: batch-based integration.
  Time summed over all CPUs for integration: real work        3.445 s, elapsed        5.601 s => Consider using load balancing!

  Updating Kohn-Sham eigenvalues and eigenvectors using ELSI and the (modified) LAPACK eigensolver.
  Starting LAPACK eigensolver
  Finished Cholesky decomposition
  | Time :     0.002 s
  Finished transformation to standard eigenproblem
  | Time :     0.003 s
  Finished solving standard eigenproblem
  | Time :     0.011 s
  Finished back-transformation of eigenvectors
  | Time :     0.001 s

  Obtaining occupation numbers and electronic chemical potential using ELSI.
  | Note that, for insulating systems, the printed 'chemical potential' value is not uniquely defined.
  | It can be anywhere in the energy gap, as long as it correctly separates occupied and unoccupied states.
  | In systems with a gap, the physically relevant chemical potential is the VBM or HOMO.

  | Chemical potential (Fermi level):    -9.24521557 eV
  Writing Kohn-Sham eigenvalues.
  K-point:       1 at    0.000000    0.000000    0.000000 (in units of recip. lattice)

  State    Occupation    Eigenvalue [Ha]    Eigenvalue [eV]
      1       2.00000        -179.992353        -4897.84111
      2       2.00000        -179.992352        -4897.84111
      3       2.00000        -179.985478        -4897.65405
      4       2.00000        -179.985478        -4897.65405
      5       2.00000         -19.761648         -537.74179
      6       2.00000         -19.761648         -537.74179
      7       2.00000         -19.755169         -537.56550
      8       2.00000         -19.755169         -537.56550
      9       2.00000         -19.004765         -517.14596
     10       2.00000         -19.004764         -517.14595
     11       2.00000         -19.004764         -517.14595
     12       2.00000         -19.004764         -517.14595
     13       2.00000         -19.003212         -517.10372
     14       2.00000         -19.003212         -517.10372
     15       2.00000         -18.965321         -516.07265
     16       2.00000         -18.965321         -516.07264
     17       2.00000         -16.351405         -444.94437
     18       2.00000         -16.351405         -444.94436
     19       2.00000         -16.351139         -444.93713
     20       2.00000         -16.351139         -444.93713
     21       2.00000         -16.351091         -444.93583
     22       2.00000         -16.351091         -444.93583
     23       2.00000         -16.344841         -444.76576
     24       2.00000         -16.344841         -444.76576
     25       2.00000         -16.344615         -444.75960
     26       2.00000         -16.344615         -444.75960
     27       2.00000         -16.344572         -444.75844
     28       2.00000         -16.344572         -444.75844
     29       2.00000          -2.322116          -63.18800
     30       2.00000          -2.322098          -63.18751
     31       2.00000          -2.318097          -63.07863
     32       2.00000          -2.318080          -63.07816
     33       2.00000          -1.460691          -39.74743
     34       2.00000          -1.460444          -39.74071
     35       2.00000          -1.454397          -39.57616
     36       2.00000          -1.453996          -39.56523
     37       2.00000          -1.453581          -39.55396
     38       2.00000          -1.453523          -39.55238
     39       2.00000          -1.448819          -39.42436
     40       2.00000          -1.448754          -39.42261
     41       2.00000          -1.448700          -39.42112
     42       2.00000          -1.448697          -39.42105
     43       2.00000          -1.447851          -39.39802
     44       2.00000          -1.447579          -39.39063
     45       2.00000          -1.045467          -28.44860
     46       2.00000          -1.036979          -28.21764
     47       2.00000          -1.019523          -27.74263
     48       2.00000          -1.013949          -27.59097
     49       2.00000          -0.994867          -27.07170
     50       2.00000          -0.993306          -27.02923
     51       2.00000          -0.965225          -26.26510
     52       2.00000          -0.964254          -26.23869
     53       2.00000          -0.565701          -15.39351
     54       2.00000          -0.563835          -15.34274
     55       2.00000          -0.532473          -14.48932
     56       2.00000          -0.530095          -14.42461
     57       2.00000          -0.519063          -14.12442
     58       2.00000          -0.505589          -13.75778
     59       2.00000          -0.504595          -13.73074
     60       2.00000          -0.491906          -13.38544
     61       2.00000          -0.489483          -13.31952
     62       2.00000          -0.477577          -12.99554
[...]
      5       2.00000         -19.859072         -540.39284
      6       2.00000         -19.859071         -540.39283
      7       2.00000         -19.814618         -539.18318
      8       2.00000         -19.814617         -539.18317
      9       2.00000         -18.844505         -512.78508
     10       2.00000         -18.844505         -512.78507
     11       2.00000         -18.844505         -512.78507
     12       2.00000         -18.844504         -512.78505
     13       2.00000         -18.831455         -512.42996
     14       2.00000         -18.831455         -512.42996
     15       2.00000         -18.790605         -511.31837
     16       2.00000         -18.790604         -511.31836
     17       2.00000         -16.447366         -447.55559
     18       2.00000         -16.447365         -447.55558
     19       2.00000         -16.446892         -447.54271
     20       2.00000         -16.446892         -447.54271
     21       2.00000         -16.446686         -447.53711
     22       2.00000         -16.446686         -447.53710
     23       2.00000         -16.403294         -446.35633
     24       2.00000         -16.403293         -446.35631
     25       2.00000         -16.401921         -446.31899
     26       2.00000         -16.401921         -446.31897
     27       2.00000         -16.401264         -446.30109
     28       2.00000         -16.401263         -446.30107
     29       2.00000          -2.392866          -65.11319
     30       2.00000          -2.392864          -65.11314
     31       2.00000          -2.347989          -63.89204
     32       2.00000          -2.347988          -63.89201
     33       2.00000          -1.519712          -41.35346
     34       2.00000          -1.519653          -41.35186
     35       2.00000          -1.519306          -41.34242
     36       2.00000          -1.519249          -41.34088
     37       2.00000          -1.513865          -41.19437
     38       2.00000          -1.513860          -41.19423
     39       2.00000          -1.478055          -40.21991
     40       2.00000          -1.478036          -40.21940
     41       2.00000          -1.474669          -40.12778
     42       2.00000          -1.474649          -40.12723
     43       2.00000          -1.467603          -39.93550
     44       2.00000          -1.467602          -39.93547
     45       2.00000          -0.945768          -25.73566
     46       2.00000          -0.938093          -25.52681
     47       2.00000          -0.905291          -24.63422
     48       2.00000          -0.901549          -24.53239
     49       2.00000          -0.895820          -24.37651
     50       2.00000          -0.893767          -24.32063
     51       2.00000          -0.835568          -22.73697
     52       2.00000          -0.834583          -22.71015
     53       2.00000          -0.492541          -13.40273
     54       2.00000          -0.491677          -13.37920
     55       2.00000          -0.442798          -12.04916
     56       2.00000          -0.441706          -12.01944
     57       2.00000          -0.440317          -11.98162
     58       2.00000          -0.434684          -11.82836
     59       2.00000          -0.433619          -11.79936
     60       2.00000          -0.397479          -10.81597
     61       2.00000          -0.394449          -10.73352
     62       2.00000          -0.391069          -10.64154
     63       2.00000          -0.377048          -10.25999
     64       2.00000          -0.372835          -10.14535
     65       2.00000          -0.366622           -9.97629
     66       2.00000          -0.362829           -9.87307
     67       2.00000          -0.345697           -9.40690
     68       2.00000          -0.342889           -9.33050
     69       2.00000          -0.332201           -9.03965
     70       2.00000          -0.311739           -8.48286
     71       2.00000          -0.308141           -8.38495
     72       2.00000          -0.305670           -8.31771
     73       2.00000          -0.293934           -7.99836
     74       2.00000          -0.290476           -7.90425
     75       2.00000          -0.282570           -7.68912
     76       2.00000          -0.278622           -7.58169
     77       0.00000          -0.224121           -6.09865
     78       0.00000          -0.223126           -6.07157
     79       0.00000          -0.204853           -5.57433
     80       0.00000          -0.204466           -5.56381
     81       0.00000          -0.189359           -5.15273
     82       0.00000          -0.180975           -4.92458
     83       0.00000          -0.177380           -4.82676
     84       0.00000          -0.173263           -4.71473
     85       0.00000          -0.172998           -4.70750
     86       0.00000          -0.171030           -4.65397
     87       0.00000          -0.156982           -4.27170
     88       0.00000          -0.141650           -3.85448
     89       0.00000          -0.124733           -3.39417
     90       0.00000          -0.117339           -3.19296
     91       0.00000          -0.072054           -1.96069
     92       0.00000          -0.065922           -1.79383
     93       0.00000          -0.056604           -1.54029
     94       0.00000          -0.056406           -1.53489
     95       0.00000          -0.022407           -0.60974
     96       0.00000          -0.021478           -0.58444
     97       0.00000          -0.021261           -0.57853
     98       0.00000          -0.012923           -0.35165
     99       0.00000           0.083987            2.28541
    100       0.00000           0.132400            3.60278
    101       0.00000           0.135951            3.69942
    102       0.00000           0.147492            4.01347
    103       0.00000           0.156181            4.24990
    104       0.00000           0.177401            4.82732
    105       0.00000           0.221832            6.03636
    106       0.00000           0.241718            6.57748
    107       0.00000           0.271024            7.37495
    108       0.00000           0.289829            7.88664
    109       0.00000           0.358148            9.74571
    110       0.00000           0.385118           10.47960
    111       0.00000           0.390807           10.63440
    112       0.00000           0.406910           11.07258
    113       0.00000           0.407410           11.08618
    114       0.00000           0.423922           11.53550
    115       0.00000           0.432044           11.75651
    116       0.00000           0.450119           12.24835
    117       0.00000           0.507004           13.79627
    118       0.00000           0.519806           14.14463
    119       0.00000           0.522099           14.20705
    120       0.00000           0.522869           14.22799
    121       0.00000           0.546315           14.86600
    122       0.00000           0.552940           15.04626

  What follows are estimated values for band gap, HOMO, LUMO, etc.
  | They are estimated on a discrete k-point grid and not necessarily exact.
  | For converged numbers, create a DOS and/or band structure plot on a denser k-grid.

  Highest occupied state (VBM) at     -7.58168645 eV (relative to internal zero)
  | Occupation number:      2.00000000
  | K-point:       1 at    0.000000    0.000000    0.000000 (in units of recip. lattice)

  Lowest unoccupied state (CBM) at    -6.09865021 eV (relative to internal zero)
  | Occupation number:      0.00000000
  | K-point:       1 at    0.000000    0.000000    0.000000 (in units of recip. lattice)

  ESTIMATED overall HOMO-LUMO gap:      1.48303624 eV between HOMO at k-point 1 and LUMO at k-point 1
  | This appears to be a direct band gap.
  The gap value is above 0.2 eV. Unless you are using a very sparse k-point grid,
  this system is most likely an insulator or a semiconductor.

  | Chemical Potential                          :    -6.55301954 eV
  | Note that, for insulating systems, the printed 'chemical potential' value is not uniquely defined.
  | It can be anywhere in the energy gap, as long as it correctly separates occupied and unoccupied states.
  | In systems with a gap, the physically relevant chemical potential is the VBM or HOMO.

  Self-consistency cycle converged.


------------------------------------------------------------
  End self-consistency iteration #    22       :  max(cpu_time)    wall_clock(cpu1)
  | Time for this iteration                     :        0.530 s           0.530 s
  | Charge density update                       :        0.000 s           0.000 s
  | Density mixing                              :        0.232 s           0.232 s
  | Hartree multipole update                    :        0.001 s           0.001 s
  | Hartree multipole summation                 :        0.079 s           0.079 s
  | Integration                                 :        0.178 s           0.178 s
  | Solution of K.-S. eqns.                     :        0.038 s           0.039 s
  | Total energy evaluation                     :        0.000 s           0.000 s

  Partial memory accounting:
  | Current value for overall tracked memory usage:
  |   Minimum:        7.157 MB (on task  8)
  |   Maximum:        7.624 MB (on task  1)
  |   Average:        7.233 MB
  | Peak value for overall tracked memory usage:
  |   Minimum:       15.345 MB (on task 28 after allocating gradient_basis_wave)
  |   Maximum:       16.977 MB (on task  1 after allocating gradient_basis_wave)
  |   Average:       16.212 MB
  | Largest tracked array allocation so far:
  |   Minimum:        3.164 MB (hamiltonian_shell on task 12)
  |   Maximum:        3.955 MB (hamiltonian_shell on task 20)
  |   Average:        3.621 MB
  Note:  These values currently only include a subset of arrays which are explicitly tracked.
  The "true" memory usage will be greater.
------------------------------------------------------------

  Energy and forces in a compact form:
  | Total energy uncorrected      :         -0.109598755388508E+06 eV
  | Total energy corrected        :         -0.109598755388508E+06 eV  <-- do not rely on this value for anything but (periodic) metals
  | Electronic free energy        :         -0.109598755388508E+06 eV

  ------------------------------------ 
  Start decomposition of the XC Energy 
  ------------------------------------ 
  X and C from original XC functional choice 
  Hartree-Fock Energy :          0.000000000 Ha              0.000000000 eV
  X Energy            :       -231.104593964 Ha          -6288.675966064 eV
  C Energy            :         -5.980045052 Ha           -162.725305232 eV
  XC Energy w/o HF    :       -237.084639016 Ha          -6451.401271296 eV
  Total XC Energy     :       -237.084639016 Ha          -6451.401271296 eV
  ------------------------------------ 
  LDA X and C from self-consistent density 
  X Energy LDA        :       -214.470198001 Ha          -5836.031021594 eV
  C Energy LDA        :        -11.726997055 Ha           -319.107825897 eV
  ------------------------------------ 
  End decomposition of the XC Energy 
  ------------------------------------ 

------------------------------------------------------------

  ------------------------------------------------------------
                   Starting Mulliken Analysis
  ------------------------------------------------------------

  Performing Mulliken charge analysis on all atoms.
  Full analysis will be written to separate file 'Mulliken.out'.
  Summary of the per-atom charge analysis:
  |
  |  atom       electrons          charge             l=0             l=1             l=2             l=3             l=4
  |     1        8.489450       -0.489450        3.880907        4.597678        0.010865
  |     2        8.641041       -0.641041        3.857320        4.773184        0.010537
  |     3       20.745101        1.254899        6.097870       12.425300        2.101148        0.120784
  |     4       20.898815        1.101185        6.042761       12.504594        2.207534        0.143926
  |     5        8.641042       -0.641042        3.857320        4.773186        0.010537
  |     6        8.584552       -0.584552        3.840060        4.733849        0.010643
  |     7        8.584552       -0.584552        3.840060        4.733849        0.010643
  |     8        8.641042       -0.641042        3.857320        4.773185        0.010537
  |     9       20.745099        1.254901        6.097869       12.425300        2.101146        0.120784
  |    10       20.898814        1.101186        6.042760       12.504593        2.207534        0.143926
  |    11        8.641043       -0.641043        3.857321        4.773186        0.010537
  |    12        8.489449       -0.489449        3.880907        4.597676        0.010865
  |
  | Total      152.000000        0.000000
 
  Writing Mulliken decomposition to disk ...

  Mulliken analysis                                       :  max(cpu_time)    wall_clock(cpu1)
  | Time for Mulliken analysis                            :          0.409               0.409
  | Total time for Mulliken analysis                      :          0.409               0.409
------------------------------------------------------------

------------------------------------------------------------------------------
  Final output of selected total energy values:

  The following output summarizes some interesting total energy values
  at the end of a run (AFTER all relaxation, molecular dynamics, etc.).

  | Total energy of the DFT / Hartree-Fock s.c.f. calculation      :        -109598.755388508 eV
  | Final zero-broadening corrected energy (caution - metals only) :        -109598.755388508 eV
  | For reference only, the value of 1 Hartree used in FHI-aims is :             27.211384500 eV
  | For reference only, the overall average (free atom contribution
  | + realspace contribution) of the electrostatic potential after
  | s.c.f. convergence is                                          :             -4.996524314 eV

  Before relying on these values, please be sure to understand exactly which
  total energy value is referred to by a given number. Different objects may
  all carry the same name 'total energy'. Definitions:

  Total energy of the DFT / Hartree-Fock s.c.f. calculation:
  | Note that this energy does not include ANY quantities calculated after the
  | s.c.f. cycle, in particular not ANY RPA, MP2, etc. many-body perturbation terms.

  Final zero-broadening corrected energy:
  | For metallic systems only, a broadening of the occupation numbers at the Fermi
  | level can be extrapolated back to zero broadening by an electron-gas inspired
  | formula. For all systems that are not real metals, this value can be
  | meaningless and should be avoided.

------------------------------------------------------------------------------
  Methods described in the following list of references were used in this FHI-aims run.
  If you publish the results, please make sure to cite these reference if they apply.
  FHI-aims is an academic code, and for our developers (often, Ph.D. students
  and postdocs), scientific credit in the community is essential.
  Thank you for helping us!

  For any use of FHI-aims, please cite:

    Volker Blum, Ralf Gehrke, Felix Hanke, Paula Havu, Ville Havu,
    Xinguo Ren, Karsten Reuter, and Matthias Scheffler
    'Ab initio molecular simulations with numeric atom-centered orbitals'
    Computer Physics Communications 180, 2175-2196 (2009)
    http://doi.org/10.1016/j.cpc.2009.06.022


  The provided symmetry information was generated with SPGlib:

    Atsushi Togo, Yusuke Seto, Dimitar Pashov
    SPGlib 1.7.3 obtained from http://spglib.sourceforge.net
    Licence: New BSD license
    Copyright (C) 2008 Atsushi Togo


  The ELSI infrastructure was used in your run to solve the Kohn-Sham electronic structure.
  Please check out https://wordpress.elsi-interchange.org to learn more.
  If scalability is important for your project, please acknowledge ELSI by citing:

    V. W-z. Yu, F. Corsetti, A. Garcia, W. P. Huhn, M. Jacquelin, W. Jia,
    B. Lange, L. Lin, J. Lu, W. Mi, A. Seifitokaldani, A. Vazquez-Mayagoitia,
    C. Yang, H. Yang, and V. Blum
    'ELSI: A unified software interface for Kohn-Sham electronic structure solvers'
    Computer Physics Communications 222, 267-285 (2018).
    http://doi.org/10.1016/j.cpc.2017.09.007


  For the real-space grid partitioning and parallelization used in this calculation, please cite:

    Ville Havu, Volker Blum, Paula Havu, and Matthias Scheffler,
    'Efficient O(N) integration for all-electron electronic structure calculation'
    'using numerically tabulated basis functions'
    Journal of Computational Physics 228, 8367-8379 (2009).
    http://doi.org/10.1016/j.jcp.2009.08.008

  Of course, there are many other important community references, e.g., those cited in the
  above references. Our list is limited to references that describe implementations in the
  FHI-aims code. The reason is purely practical (length of this list) - please credit others as well.

------------------------------------------------------------
          Leaving FHI-aims.
          Date     :  20241014, Time     :  150010.418

          Computational steps:
          | Number of self-consistency cycles          :           22
          | Number of SCF (re)initializations          :            1

          Detailed time accounting                     :  max(cpu_time)    wall_clock(cpu1)
          | Total time                                  :       20.030 s          20.031 s
          | Preparation time                            :        0.339 s           0.338 s
          | Boundary condition initalization            :        0.042 s           0.042 s
          | Grid partitioning                           :        0.063 s           0.063 s
          | Preloading free-atom quantities on grid     :        0.110 s           0.110 s
          | Free-atom superposition energy              :        0.014 s           0.014 s
          | Total time for integrations                 :        4.233 s           4.237 s
          | Total time for solution of K.-S. equations  :        0.902 s           0.898 s
          | Total time for density update               :        6.982 s           6.983 s
          | Total time for mixing & preconditioning     :        5.111 s           5.114 s
          | Total time for Hartree multipole update     :        0.032 s           0.029 s
          | Total time for Hartree multipole sum        :        1.713 s           1.713 s
          | Total time for total energy evaluation      :        0.005 s           0.007 s
          | Total time for scaled ZORA corrections      :        0.000 s           0.000 s
          | Total time for Mulliken analysis            :        0.409 s           0.409 s

          Partial memory accounting:
          | Residual value for overall tracked memory usage across tasks:     0.000000 MB (should be 0.000000 MB)
          | Peak values for overall tracked memory usage:
          |   Minimum:       15.345 MB (on task 28 after allocating gradient_basis_wave)
          |   Maximum:       16.977 MB (on task  1 after allocating gradient_basis_wave)
          |   Average:       16.212 MB
          | Largest tracked array allocation:
          |   Minimum:        3.164 MB (hamiltonian_shell on task 12)
          |   Maximum:        3.955 MB (hamiltonian_shell on task 20)
          |   Average:        3.621 MB
          Note:  These values currently only include a subset of arrays which are explicitly tracked.
          The "true" memory usage will be greater.

          Have a nice day.
------------------------------------------------------------
