------------------------------------------------------------
          Invoking FHI-aims ...

          When using FHI-aims, please cite the following reference:

            Volker Blum, Ralf Gehrke, Felix Hanke, Paula Havu,
            Ville Havu, Xinguo Ren, Karsten Reuter, and Matthias Scheffler,
            'Ab Initio Molecular Simulations with Numeric Atom-Centered Orbitals',
            Computer Physics Communications 180, 2175-2196 (2009)

          In addition, many other developments in FHI-aims are likely important for
          your particular application. If so, please cite them. A partial list of references
          is written at the end of this file. Thank you for giving credit to the authors
          of these developments.

          For general information about FHI-aims please find us at

            https://fhi-aims.org

          Online tutorials can be found at

            https://fhi-aims-club.gitlab.io/tutorials/tutorials-overview/

          For any questions about FHI-aims, please visit our slack channel at

            https://fhi-aims.slack.com

          and our main development and support site at

            https://aims-git.rz-berlin.mpg.de .

          The latter site, in particular, has a wiki to collect information, as well
          as an issue tracker to log discussions, suggest improvements, and report issues
          or bugs. https://aims-git.rz-berlin.mpg.de is also the main development site
          of the project and all new and updated code versions can be obtained there.
          Please send an email to aims-coordinators@fhi-berlin.mpg.de and we will add
          you to these sites. They are for you and everyone is welcome there.

------------------------------------------------------------



  Date     :  20240917, Time     :  194943.650
  Time zero on CPU 1             :   0.892868000000000E+00  s.
  Internal wall clock time zero  :           495834583.650  s.

  FHI-aims created a unique identifier for this run for later identification
  aims_uuid : A7CB452D-7DC6-4DC1-AF36-80D0CC18376D

  Build configuration of the current instance of FHI-aims
  -------------------------------------------------------
  FHI-aims version      : 240605
  Commit number         : b001b2e18
  CMake host system     : Linux-6.5.0-41-generic
  CMake version         : 3.22.1
  Fortran compiler      : /opt/intel/oneapi/mpi/2021.12/bin/mpiifort (IntelLLVM) version 2024.1.0
  Fortran compiler flags: -fc=ifx -O3 -ip -fp-model precise
  C compiler            : /opt/intel/oneapi/mpi/2021.12/bin/mpiicc (IntelLLVM) version 2024.1.0
  C compiler flags      : -cc=icx -O3 -ip -fp-model precise -std=gnu99
  C++ compiler          : /opt/intel/oneapi/mpi/2021.12/bin/mpiicpc (IntelLLVM) version 2024.1.0
  C++ compiler flags    : -cxx=icpx -O3 -ip -fp-model precise -std=c++11
  HIP compiler          :
  HIP compiler flags    :
  HIP GPU arch          :
  Using MPI
  Using ScaLAPACK
  Using LibXC
  Using i-PI
  Using RLSY
  Linking against: /opt/intel/oneapi/mkl/2024.1/lib/intel64/libmkl_intel_lp64.so
                   /opt/intel/oneapi/mkl/2024.1/lib/intel64/libmkl_sequential.so
                   /opt/intel/oneapi/mkl/2024.1/lib/intel64/libmkl_core.so
                   /opt/intel/oneapi/mkl/2024.1/lib/intel64/libmkl_blacs_intelmpi_lp64.so
                   /opt/intel/oneapi/mkl/2024.1/lib/intel64/libmkl_scalapack_lp64.so
                   /opt/intel/oneapi/mkl/2024.1/lib/intel64/libmkl_core.so

  Using      128 parallel tasks.
  Task        0 on host RSL-arvutus reporting.
  Task        1 on host RSL-arvutus reporting.
  Task        2 on host RSL-arvutus reporting.
  Task        3 on host RSL-arvutus reporting.
  Task        4 on host RSL-arvutus reporting.
  Task        5 on host RSL-arvutus reporting.
  Task        6 on host RSL-arvutus reporting.
  Task        7 on host RSL-arvutus reporting.
  Task        8 on host RSL-arvutus reporting.
  Task        9 on host RSL-arvutus reporting.
  Task       10 on host RSL-arvutus reporting.
  Task       11 on host RSL-arvutus reporting.
  Task       12 on host RSL-arvutus reporting.
  Task       13 on host RSL-arvutus reporting.
  Task       14 on host RSL-arvutus reporting.
  Task       15 on host RSL-arvutus reporting.
  Task       16 on host RSL-arvutus reporting.
  Task       17 on host RSL-arvutus reporting.
  Task       18 on host RSL-arvutus reporting.
  Task       19 on host RSL-arvutus reporting.
  Task       20 on host RSL-arvutus reporting.
  Task       21 on host RSL-arvutus reporting.
  Task       22 on host RSL-arvutus reporting.
  Task       23 on host RSL-arvutus reporting.
  Task       24 on host RSL-arvutus reporting.
  Task       25 on host RSL-arvutus reporting.
  Task       26 on host RSL-arvutus reporting.
  Task       27 on host RSL-arvutus reporting.
  Task       28 on host RSL-arvutus reporting.
  Task       29 on host RSL-arvutus reporting.
  Task       30 on host RSL-arvutus reporting.
  Task       31 on host RSL-arvutus reporting.
  Task       32 on host RSL-arvutus reporting.
  Task       33 on host RSL-arvutus reporting.
  Task       34 on host RSL-arvutus reporting.
  Task       35 on host RSL-arvutus reporting.
  Task       36 on host RSL-arvutus reporting.
  Task       37 on host RSL-arvutus reporting.
  Task       38 on host RSL-arvutus reporting.
  Task       39 on host RSL-arvutus reporting.
  Task       40 on host RSL-arvutus reporting.
  Task       41 on host RSL-arvutus reporting.
  Task       42 on host RSL-arvutus reporting.
  Task       43 on host RSL-arvutus reporting.
  Task       44 on host RSL-arvutus reporting.
  Task       45 on host RSL-arvutus reporting.
  Task       46 on host RSL-arvutus reporting.
  Task       47 on host RSL-arvutus reporting.
  Task       48 on host RSL-arvutus reporting.
  Task       49 on host RSL-arvutus reporting.
  Task       50 on host RSL-arvutus reporting.
  Task       51 on host RSL-arvutus reporting.
  Task       52 on host RSL-arvutus reporting.
  Task       53 on host RSL-arvutus reporting.
  Task       54 on host RSL-arvutus reporting.
  Task       55 on host RSL-arvutus reporting.
  Task       56 on host RSL-arvutus reporting.
  Task       57 on host RSL-arvutus reporting.
  Task       58 on host RSL-arvutus reporting.
  Task       59 on host RSL-arvutus reporting.
  Task       60 on host RSL-arvutus reporting.
  Task       61 on host RSL-arvutus reporting.
  Task       62 on host RSL-arvutus reporting.
  Task       63 on host RSL-arvutus reporting.
  Task       64 on host RSL-arvutus reporting.
  Task       65 on host RSL-arvutus reporting.
  Task       66 on host RSL-arvutus reporting.
  Task       67 on host RSL-arvutus reporting.
  Task       68 on host RSL-arvutus reporting.
  Task       69 on host RSL-arvutus reporting.
  Task       70 on host RSL-arvutus reporting.
  Task       71 on host RSL-arvutus reporting.
  Task       72 on host RSL-arvutus reporting.
  Task       73 on host RSL-arvutus reporting.
  Task       74 on host RSL-arvutus reporting.
  Task       75 on host RSL-arvutus reporting.
  Task       76 on host RSL-arvutus reporting.
  Task       77 on host RSL-arvutus reporting.
  Task       78 on host RSL-arvutus reporting.
  Task       79 on host RSL-arvutus reporting.
  Task       80 on host RSL-arvutus reporting.
  Task       81 on host RSL-arvutus reporting.
  Task       82 on host RSL-arvutus reporting.
  Task       83 on host RSL-arvutus reporting.
  Task       84 on host RSL-arvutus reporting.
  Task       85 on host RSL-arvutus reporting.
  Task       86 on host RSL-arvutus reporting.
  Task       87 on host RSL-arvutus reporting.
  Task       88 on host RSL-arvutus reporting.
  Task       89 on host RSL-arvutus reporting.
  Task       90 on host RSL-arvutus reporting.
  Task       91 on host RSL-arvutus reporting.
  Task       92 on host RSL-arvutus reporting.
  Task       93 on host RSL-arvutus reporting.
  Task       94 on host RSL-arvutus reporting.
  Task       95 on host RSL-arvutus reporting.
  Task       96 on host RSL-arvutus reporting.
  Task       97 on host RSL-arvutus reporting.
  Task       98 on host RSL-arvutus reporting.
  Task       99 on host RSL-arvutus reporting.
  Task      100 on host RSL-arvutus reporting.
  Task      101 on host RSL-arvutus reporting.
  Task      102 on host RSL-arvutus reporting.
  Task      103 on host RSL-arvutus reporting.
  Task      104 on host RSL-arvutus reporting.
  Task      105 on host RSL-arvutus reporting.
  Task      106 on host RSL-arvutus reporting.
  Task      107 on host RSL-arvutus reporting.
  Task      108 on host RSL-arvutus reporting.
  Task      109 on host RSL-arvutus reporting.
  Task      110 on host RSL-arvutus reporting.
  Task      111 on host RSL-arvutus reporting.
  Task      112 on host RSL-arvutus reporting.
  Task      113 on host RSL-arvutus reporting.
  Task      114 on host RSL-arvutus reporting.
  Task      115 on host RSL-arvutus reporting.
  Task      116 on host RSL-arvutus reporting.
  Task      117 on host RSL-arvutus reporting.
  Task      118 on host RSL-arvutus reporting.
  Task      119 on host RSL-arvutus reporting.
  Task      120 on host RSL-arvutus reporting.
  Task      121 on host RSL-arvutus reporting.
  Task      122 on host RSL-arvutus reporting.
  Task      123 on host RSL-arvutus reporting.
  Task      124 on host RSL-arvutus reporting.
  Task      125 on host RSL-arvutus reporting.
  Task      126 on host RSL-arvutus reporting.
  Task      127 on host RSL-arvutus reporting.

  Memory overcommitment is allowed on your operating system.

  Obtaining array dimensions for all initial allocations:
  
  -----------------------------------------------------------------------
  Parsing control.in (first pass over file, find array dimensions only).
  The contents of control.in will be repeated verbatim below
  unless switched off by setting 'verbatim_writeout .false.' .
  in the first line of control.in .
  -----------------------------------------------------------------------
  
    xc              pbe
    relativistic    atomic_zora scalar 1.0e-12
    KS_method       serial
    k_grid          2 2 3
  
    charge          1
    spin		  collinear
    default_initial_moment 0.0
    force_occupation_projector    257 1 0.0 129 896
    restart_read_only   restart
  
    output          Mulliken
  
  ################################################################################
  #
  #  FHI-aims code project
  #  VB, Fritz-Haber Institut, 2009
  #
  #  Suggested "light" defaults for Ti atom (to be pasted into control.in file)
  #  Be sure to double-check any results obtained with these settings for post-processing,
  #  e.g., with the "tight" defaults and larger basis sets.
  #
  ################################################################################
    species        Ti
  #     global species definitions
      nucleus             22
      mass                47.867
  #
      l_hartree           4
  #
      cut_pot             3.5          1.5  1.0
      basis_dep_cutoff    1e-4
  #
      radial_base         48 5.0
      radial_multiplier   1
      angular_grids       specified
        division   0.5171   50
        division   0.9824  110
        division   1.2917  194
        division   1.4940  302
  #      division   1.6934  434
  #      division   1.8425  590
  #      division   2.1901  770
  #      division   2.2896  974
  #      division   2.8244 1202
  #      outer_grid  974
        outer_grid  302
  ################################################################################
  #
  #  Definition of "minimal" basis
  #
  ################################################################################
  #     valence basis states
      valence      4  s   2.
      valence      3  p   6.
      valence      3  d   2.
  #     ion occupancy
      ion_occ      4  s   1.
      ion_occ      3  p   6.
      ion_occ      3  d   1.
  ################################################################################
  #
  #  Suggested additional basis functions. For production calculations,
  #  uncomment them one after another (the most important basis functions are
  #  listed first).
  #
  #  Constructed for dimers: 1.6 A, 1.85 A, 2.5 A, 3.25 A, 4.25 A
  #
  ################################################################################
  #  "First tier" - improvements: -396.25 meV to -19.41 meV
       hydro 4 f 8
       hydro 3 d 2.7
       ionic 4 p auto
  #     hydro 5 g 11.6
       ionic 4 s auto
  #  "Second tier" - improvements: -16.30 meV to -2.03 meV
  #     hydro 3 d 4.4
  #     hydro 6 h 16
  #     hydro 4 f 9.4
  #     hydro 4 p 4.5
  #     hydro 1 s 0.5
  #  "Third tier" - improvements: -6.28 meV to -0.37 meV
  #     hydro 4 d 6.4
  #     hydro 4 f 10
  #     hydro 5 g 12
  #     hydro 2 p 1.7
  #     hydro 6 h 16.4
  #     hydro 4 s 3.8
  #  Further basis functions: -0.45 meV and smaller improvements
  #     hydro 3 d 8.8
  #     hydro 5 p 18
  #     hydro 4 f 22.4
  #     hydro 5 f 7.2  # -0.16 meV
  #     hydro 3 d 2.1  # -0.11 meV
  #     hydro 5 g 7.4  # -0.09 meV
  
  
  ################################################################################
  #
  #  FHI-aims code project
  #  VB, Fritz-Haber Institut, 2009
  #
  #  Suggested "light" defaults for O atom (to be pasted into control.in file)
  #  Be sure to double-check any results obtained with these settings for post-processing,
  #  e.g., with the "tight" defaults and larger basis sets.
  #
  ################################################################################
    species        O
  #     global species definitions
      nucleus             8
      mass                15.9994
  #
      l_hartree           4
  #
      cut_pot             3.5  1.5  1.0
      basis_dep_cutoff    1e-4
  #
      radial_base         36 5.0
      radial_multiplier   1
       angular_grids specified
        division   0.2659   50
        division   0.4451  110
        division   0.6052  194
        division   0.7543  302
  #      division   0.8014  434
  #      division   0.8507  590
  #      division   0.8762  770
  #      division   0.9023  974
  #      division   1.2339 1202
  #      outer_grid 974
        outer_grid 302
  ################################################################################
  #
  #  Definition of "minimal" basis
  #
  ################################################################################
  #     valence basis states
      valence      2  s   2.
      valence      2  p   4.
  #     ion occupancy
      ion_occ      2  s   1.
      ion_occ      2  p   3.
  ################################################################################
  #
  #  Suggested additional basis functions. For production calculations,
  #  uncomment them one after another (the most important basis functions are
  #  listed first).
  #
  #  Constructed for dimers: 1.0 A, 1.208 A, 1.5 A, 2.0 A, 3.0 A
  #
  ################################################################################
  #  "First tier" - improvements: -699.05 meV to -159.38 meV
       hydro 2 p 1.8
       hydro 3 d 7.6
       hydro 3 s 6.4
  #  "Second tier" - improvements: -49.91 meV to -5.39 meV
  #     hydro 4 f 11.6
  #     hydro 3 p 6.2
  #     hydro 3 d 5.6
  #     hydro 5 g 17.6
  #     hydro 1 s 0.75
  #  "Third tier" - improvements: -2.83 meV to -0.50 meV
  #     ionic 2 p auto
  #     hydro 4 f 10.8
  #     hydro 4 d 4.7
  #     hydro 2 s 6.8
  #  "Fourth tier" - improvements: -0.40 meV to -0.12 meV
  #     hydro 3 p 5
  #     hydro 3 s 3.3
  #     hydro 5 g 15.6
  #     hydro 4 f 17.6
  #     hydro 4 d 14
  # Further basis functions - -0.08 meV and below
  #     hydro 3 s 2.1
  #     hydro 4 d 11.6
  #     hydro 3 p 16
  #     hydro 2 s 17.2
  
  ################################################################################
  #
  #  "Core" basis functions and numerical settings for O atom.
  #  Based on “tight” defaults (V. Blum, 2009).
  #
  ################################################################################
    species        O1
  #     global species definitions
      nucleus             8
      mass                15.9994
  #
      l_hartree           6
  #
      cut_pot             4.0  2.0  1.0
      basis_dep_cutoff    1e-4
  #
      radial_base         36 7.0
      radial_multiplier   2
       angular_grids specified
        division   0.1817   50
        division   0.3417  110
        division   0.4949  194
        division   0.6251  302
        division   0.8014  434
  #      division   0.8507  590
  #      division   0.8762  770
  #      division   0.9023  974
  #      division   1.2339 1202
  #      outer_grid 974
        outer_grid  434
  ################################################################################
  #
  #  Definition of "minimal" basis
  #
  ################################################################################
  #     valence basis states
      valence      2  s   2.
      valence      2  p   4.
  #     ion occupancy
      ion_occ      2  s   1.
      ion_occ      2  p   3.
  ################################################################################
  #
  #  Suggested additional basis functions. For production calculations,
  #  uncomment them one after another (the most important basis functions are
  #  listed first).
  #
  #  Constructed for dimers: 1.0 A, 1.208 A, 1.5 A, 2.0 A, 3.0 A
  #
  ################################################################################
  #  "First tier" - improvements: -699.05 meV to -159.38 meV
       hydro 2 p 1.8
       hydro 3 d 7.6
       hydro 3 s 6.4
  #  "Second tier" - improvements: -49.91 meV to -5.39 meV
       hydro 4 f 11.6
       hydro 3 p 6.2
       hydro 3 d 5.6
       hydro 5 g 17.6
       hydro 1 s 0.75
  #  "Third tier" - improvements: -2.83 meV to -0.50 meV
       ionic 2 p auto
       hydro 4 f 10.8
       hydro 4 d 4.7
       hydro 2 s 6.8
  #  "Fourth tier" - improvements: -0.40 meV to -0.12 meV
  #     hydro 3 p 5
  #     hydro 3 s 3.3
  #     hydro 5 g 15.6
  #     hydro 4 f 17.6
  #     hydro 4 d 14
  # Further basis functions - -0.08 meV and below
  #     hydro 3 s 2.1
  #     hydro 4 d 11.6
  #     hydro 3 p 16
  #     hydro 2 s 17.2
  
  # Additional basis functions for atom with a core hole
       hydro 1 s 12.0
       hydro 1 s 10.0
       hydro 1 s 6.0
       hydro 2 s 10.0
       hydro 2 p 8.0
       hydro 2 p 6.0
       hydro 3 d 8.0
  
  -----------------------------------------------------------------------
  Completed first pass over input file control.in .
  -----------------------------------------------------------------------
  
  
  -----------------------------------------------------------------------
  Parsing geometry.in (first pass over file, find array dimensions only).
  The contents of geometry.in will be repeated verbatim below
  unless switched off by setting 'verbatim_writeout .false.' .
  in the first line of geometry.in .
  -----------------------------------------------------------------------
  
  lattice_vector 18.572247 0.000486 0.000000
  lattice_vector 0.000487 18.572347 0.000000
  lattice_vector 0.000000 0.000000 11.891531
  
  atom_frac 1.000000 0.000000 0.000000 Ti
  atom_frac 0.125000 0.125000 0.125000 Ti
  atom_frac 0.076390 0.076392 0.000000 O1
  atom_frac 0.173610 0.173608 0.000000 O
  atom_frac 0.048612 0.201391 0.125000 O
  atom_frac 0.201388 0.048609 0.125000 O
  atom_frac 1.000000 0.000000 0.250000 Ti
  atom_frac 0.125000 0.125000 0.375000 Ti
  atom_frac 0.076390 0.076392 0.250000 O
  atom_frac 0.173610 0.173608 0.250000 O
  atom_frac 0.048612 0.201391 0.375000 O
  atom_frac 0.201388 0.048609 0.375000 O
  atom_frac 1.000000 0.000000 0.500000 Ti
  atom_frac 0.125000 0.125000 0.625000 Ti
  atom_frac 0.076390 0.076392 0.500000 O
  atom_frac 0.173610 0.173608 0.500000 O
  atom_frac 0.048612 0.201391 0.625000 O
  atom_frac 0.201388 0.048609 0.625000 O
  atom_frac 1.000000 0.000000 0.750000 Ti
  atom_frac 0.125000 0.125000 0.875000 Ti
  atom_frac 0.076390 0.076392 0.750000 O
  atom_frac 0.173610 0.173608 0.750000 O
  atom_frac 0.048612 0.201391 0.875000 O
  atom_frac 0.201388 0.048609 0.875000 O
  atom_frac 1.000000 0.250000 0.000000 Ti
  atom_frac 0.125000 0.375000 0.125000 Ti
  atom_frac 0.076390 0.326392 0.000000 O
  atom_frac 0.173610 0.423608 0.000000 O
  atom_frac 0.048612 0.451391 0.125000 O
  atom_frac 0.201388 0.298609 0.125000 O
  atom_frac 1.000000 0.250000 0.250000 Ti
  atom_frac 0.125000 0.375000 0.375000 Ti
  atom_frac 0.076390 0.326392 0.250000 O
  atom_frac 0.173610 0.423608 0.250000 O
  atom_frac 0.048612 0.451391 0.375000 O
  atom_frac 0.201388 0.298609 0.375000 O
  atom_frac 1.000000 0.250000 0.500000 Ti
  atom_frac 0.125000 0.375000 0.625000 Ti
  atom_frac 0.076390 0.326392 0.500000 O
  atom_frac 0.173610 0.423608 0.500000 O
  atom_frac 0.048612 0.451391 0.625000 O
  atom_frac 0.201388 0.298609 0.625000 O
  atom_frac 1.000000 0.250000 0.750000 Ti
  atom_frac 0.125000 0.375000 0.875000 Ti
  atom_frac 0.076390 0.326392 0.750000 O
  atom_frac 0.173610 0.423608 0.750000 O
  atom_frac 0.048612 0.451391 0.875000 O
  atom_frac 0.201388 0.298609 0.875000 O
  atom_frac 1.000000 0.500000 0.000000 Ti
  atom_frac 0.125000 0.625000 0.125000 Ti
  atom_frac 0.076390 0.576392 0.000000 O
  atom_frac 0.173610 0.673608 0.000000 O
  atom_frac 0.048612 0.701391 0.125000 O
  atom_frac 0.201388 0.548609 0.125000 O
  atom_frac 1.000000 0.500000 0.250000 Ti
  atom_frac 0.125000 0.625000 0.375000 Ti
  atom_frac 0.076390 0.576392 0.250000 O
  atom_frac 0.173610 0.673608 0.250000 O
  atom_frac 0.048612 0.701391 0.375000 O
  atom_frac 0.201388 0.548609 0.375000 O
  atom_frac 1.000000 0.500000 0.500000 Ti
  atom_frac 0.125000 0.625000 0.625000 Ti
  atom_frac 0.076390 0.576392 0.500000 O
  atom_frac 0.173610 0.673608 0.500000 O
  atom_frac 0.048612 0.701391 0.625000 O
  atom_frac 0.201388 0.548609 0.625000 O
  atom_frac 1.000000 0.500000 0.750000 Ti
  atom_frac 0.125000 0.625000 0.875000 Ti
  atom_frac 0.076390 0.576392 0.750000 O
  atom_frac 0.173610 0.673608 0.750000 O
  atom_frac 0.048612 0.701391 0.875000 O
  atom_frac 0.201388 0.548609 0.875000 O
  atom_frac 1.000000 0.750000 0.000000 Ti
  atom_frac 0.125000 0.875000 0.125000 Ti
  atom_frac 0.076390 0.826392 0.000000 O
  atom_frac 0.173610 0.923608 0.000000 O
  atom_frac 0.048612 0.951391 0.125000 O
  atom_frac 0.201388 0.798609 0.125000 O
  atom_frac 1.000000 0.750000 0.250000 Ti
  atom_frac 0.125000 0.875000 0.375000 Ti
  atom_frac 0.076390 0.826392 0.250000 O
  atom_frac 0.173610 0.923608 0.250000 O
  atom_frac 0.048612 0.951391 0.375000 O
  atom_frac 0.201388 0.798609 0.375000 O
  atom_frac 1.000000 0.750000 0.500000 Ti
  atom_frac 0.125000 0.875000 0.625000 Ti
  atom_frac 0.076390 0.826392 0.500000 O
  atom_frac 0.173610 0.923608 0.500000 O
  atom_frac 0.048612 0.951391 0.625000 O
  atom_frac 0.201388 0.798609 0.625000 O
  atom_frac 1.000000 0.750000 0.750000 Ti
  atom_frac 0.125000 0.875000 0.875000 Ti
  atom_frac 0.076390 0.826392 0.750000 O
  atom_frac 0.173610 0.923608 0.750000 O
  atom_frac 0.048612 0.951391 0.875000 O
  atom_frac 0.201388 0.798609 0.875000 O
  atom_frac 0.250000 0.000000 0.000000 Ti
  atom_frac 0.375000 0.125000 0.125000 Ti
  atom_frac 0.326390 0.076392 0.000000 O
  atom_frac 0.423610 0.173608 0.000000 O
  atom_frac 0.298612 0.201391 0.125000 O
  atom_frac 0.451388 0.048609 0.125000 O
  atom_frac 0.250000 0.000000 0.250000 Ti
  atom_frac 0.375000 0.125000 0.375000 Ti
  atom_frac 0.326390 0.076392 0.250000 O
  atom_frac 0.423610 0.173608 0.250000 O
  atom_frac 0.298612 0.201391 0.375000 O
  atom_frac 0.451388 0.048609 0.375000 O
  atom_frac 0.250000 0.000000 0.500000 Ti
  atom_frac 0.375000 0.125000 0.625000 Ti
  atom_frac 0.326390 0.076392 0.500000 O
  atom_frac 0.423610 0.173608 0.500000 O
  atom_frac 0.298612 0.201391 0.625000 O
  atom_frac 0.451388 0.048609 0.625000 O
  atom_frac 0.250000 0.000000 0.750000 Ti
  atom_frac 0.375000 0.125000 0.875000 Ti
  atom_frac 0.326390 0.076392 0.750000 O
  atom_frac 0.423610 0.173608 0.750000 O
  atom_frac 0.298612 0.201391 0.875000 O
  atom_frac 0.451388 0.048609 0.875000 O
  atom_frac 0.250000 0.250000 0.000000 Ti
  atom_frac 0.375000 0.375000 0.125000 Ti
  atom_frac 0.326390 0.326392 0.000000 O
  atom_frac 0.423610 0.423608 0.000000 O
  atom_frac 0.298612 0.451391 0.125000 O
  atom_frac 0.451388 0.298609 0.125000 O
  atom_frac 0.250000 0.250000 0.250000 Ti
  atom_frac 0.375000 0.375000 0.375000 Ti
  atom_frac 0.326390 0.326392 0.250000 O
  atom_frac 0.423610 0.423608 0.250000 O
  atom_frac 0.298612 0.451391 0.375000 O
  atom_frac 0.451388 0.298609 0.375000 O
  atom_frac 0.250000 0.250000 0.500000 Ti
  atom_frac 0.375000 0.375000 0.625000 Ti
  atom_frac 0.326390 0.326392 0.500000 O
  atom_frac 0.423610 0.423608 0.500000 O
  atom_frac 0.298612 0.451391 0.625000 O
  atom_frac 0.451388 0.298609 0.625000 O
  atom_frac 0.250000 0.250000 0.750000 Ti
  atom_frac 0.375000 0.375000 0.875000 Ti
  atom_frac 0.326390 0.326392 0.750000 O
  atom_frac 0.423610 0.423608 0.750000 O
  atom_frac 0.298612 0.451391 0.875000 O
  atom_frac 0.451388 0.298609 0.875000 O
  atom_frac 0.250000 0.500000 0.000000 Ti
  atom_frac 0.375000 0.625000 0.125000 Ti
  atom_frac 0.326390 0.576392 0.000000 O
  atom_frac 0.423610 0.673608 0.000000 O
  atom_frac 0.298612 0.701391 0.125000 O
  atom_frac 0.451388 0.548609 0.125000 O
  atom_frac 0.250000 0.500000 0.250000 Ti
  atom_frac 0.375000 0.625000 0.375000 Ti
  atom_frac 0.326390 0.576392 0.250000 O
  atom_frac 0.423610 0.673608 0.250000 O
  atom_frac 0.298612 0.701391 0.375000 O
  atom_frac 0.451388 0.548609 0.375000 O
  atom_frac 0.250000 0.500000 0.500000 Ti
  atom_frac 0.375000 0.625000 0.625000 Ti
  atom_frac 0.326390 0.576392 0.500000 O
  atom_frac 0.423610 0.673608 0.500000 O
  atom_frac 0.298612 0.701391 0.625000 O
  atom_frac 0.451388 0.548609 0.625000 O
  atom_frac 0.250000 0.500000 0.750000 Ti
  atom_frac 0.375000 0.625000 0.875000 Ti
  atom_frac 0.326390 0.576392 0.750000 O
  atom_frac 0.423610 0.673608 0.750000 O
  atom_frac 0.298612 0.701391 0.875000 O
  atom_frac 0.451388 0.548609 0.875000 O
  atom_frac 0.250000 0.750000 0.000000 Ti
  atom_frac 0.375000 0.875000 0.125000 Ti
  atom_frac 0.326390 0.826392 0.000000 O
  atom_frac 0.423610 0.923608 0.000000 O
  atom_frac 0.298612 0.951391 0.125000 O
  atom_frac 0.451388 0.798609 0.125000 O
  atom_frac 0.250000 0.750000 0.250000 Ti
  atom_frac 0.375000 0.875000 0.375000 Ti
  atom_frac 0.326390 0.826392 0.250000 O
  atom_frac 0.423610 0.923608 0.250000 O
  atom_frac 0.298612 0.951391 0.375000 O
  atom_frac 0.451388 0.798609 0.375000 O
  atom_frac 0.250000 0.750000 0.500000 Ti
  atom_frac 0.375000 0.875000 0.625000 Ti
  atom_frac 0.326390 0.826392 0.500000 O
  atom_frac 0.423610 0.923608 0.500000 O
  atom_frac 0.298612 0.951391 0.625000 O
  atom_frac 0.451388 0.798609 0.625000 O
  atom_frac 0.250000 0.750000 0.750000 Ti
  atom_frac 0.375000 0.875000 0.875000 Ti
  atom_frac 0.326390 0.826392 0.750000 O
  atom_frac 0.423610 0.923608 0.750000 O
  atom_frac 0.298612 0.951391 0.875000 O
  atom_frac 0.451388 0.798609 0.875000 O
  atom_frac 0.500000 0.000000 0.000000 Ti
  atom_frac 0.625000 0.125000 0.125000 Ti
  atom_frac 0.576390 0.076392 0.000000 O
  atom_frac 0.673610 0.173608 0.000000 O
  atom_frac 0.548612 0.201391 0.125000 O
  atom_frac 0.701388 0.048609 0.125000 O
  atom_frac 0.500000 0.000000 0.250000 Ti
  atom_frac 0.625000 0.125000 0.375000 Ti
  atom_frac 0.576390 0.076392 0.250000 O
  atom_frac 0.673610 0.173608 0.250000 O
  atom_frac 0.548612 0.201391 0.375000 O
  atom_frac 0.701388 0.048609 0.375000 O
  atom_frac 0.500000 0.000000 0.500000 Ti
  atom_frac 0.625000 0.125000 0.625000 Ti
  atom_frac 0.576390 0.076392 0.500000 O
  atom_frac 0.673610 0.173608 0.500000 O
  atom_frac 0.548612 0.201391 0.625000 O
  atom_frac 0.701388 0.048609 0.625000 O
  atom_frac 0.500000 0.000000 0.750000 Ti
  atom_frac 0.625000 0.125000 0.875000 Ti
  atom_frac 0.576390 0.076392 0.750000 O
  atom_frac 0.673610 0.173608 0.750000 O
  atom_frac 0.548612 0.201391 0.875000 O
  atom_frac 0.701388 0.048609 0.875000 O
  atom_frac 0.500000 0.250000 0.000000 Ti
  atom_frac 0.625000 0.375000 0.125000 Ti
  atom_frac 0.576390 0.326392 0.000000 O
  atom_frac 0.673610 0.423608 0.000000 O
  atom_frac 0.548612 0.451391 0.125000 O
  atom_frac 0.701388 0.298609 0.125000 O
  atom_frac 0.500000 0.250000 0.250000 Ti
  atom_frac 0.625000 0.375000 0.375000 Ti
  atom_frac 0.576390 0.326392 0.250000 O
  atom_frac 0.673610 0.423608 0.250000 O
  atom_frac 0.548612 0.451391 0.375000 O
  atom_frac 0.701388 0.298609 0.375000 O
  atom_frac 0.500000 0.250000 0.500000 Ti
  atom_frac 0.625000 0.375000 0.625000 Ti
  atom_frac 0.576390 0.326392 0.500000 O
  atom_frac 0.673610 0.423608 0.500000 O
  atom_frac 0.548612 0.451391 0.625000 O
  atom_frac 0.701388 0.298609 0.625000 O
  atom_frac 0.500000 0.250000 0.750000 Ti
  atom_frac 0.625000 0.375000 0.875000 Ti
  atom_frac 0.576390 0.326392 0.750000 O
  atom_frac 0.673610 0.423608 0.750000 O
  atom_frac 0.548612 0.451391 0.875000 O
  atom_frac 0.701388 0.298609 0.875000 O
  atom_frac 0.500000 0.500000 0.000000 Ti
  atom_frac 0.625000 0.625000 0.125000 Ti
  atom_frac 0.576390 0.576392 0.000000 O
  atom_frac 0.673610 0.673608 0.000000 O
  atom_frac 0.548612 0.701391 0.125000 O
  atom_frac 0.701388 0.548609 0.125000 O
  atom_frac 0.500000 0.500000 0.250000 Ti
  atom_frac 0.625000 0.625000 0.375000 Ti
  atom_frac 0.576390 0.576392 0.250000 O
  atom_frac 0.673610 0.673608 0.250000 O
  atom_frac 0.548612 0.701391 0.375000 O
  atom_frac 0.701388 0.548609 0.375000 O
  atom_frac 0.500000 0.500000 0.500000 Ti
  atom_frac 0.625000 0.625000 0.625000 Ti
  atom_frac 0.576390 0.576392 0.500000 O
  atom_frac 0.673610 0.673608 0.500000 O
  atom_frac 0.548612 0.701391 0.625000 O
  atom_frac 0.701388 0.548609 0.625000 O
  atom_frac 0.500000 0.500000 0.750000 Ti
  atom_frac 0.625000 0.625000 0.875000 Ti
  atom_frac 0.576390 0.576392 0.750000 O
  atom_frac 0.673610 0.673608 0.750000 O
  atom_frac 0.548612 0.701391 0.875000 O
  atom_frac 0.701388 0.548609 0.875000 O
  atom_frac 0.500000 0.750000 0.000000 Ti
  atom_frac 0.625000 0.875000 0.125000 Ti
  atom_frac 0.576390 0.826392 0.000000 O
  atom_frac 0.673610 0.923608 0.000000 O
  atom_frac 0.548612 0.951391 0.125000 O
  atom_frac 0.701388 0.798609 0.125000 O
  atom_frac 0.500000 0.750000 0.250000 Ti
  atom_frac 0.625000 0.875000 0.375000 Ti
  atom_frac 0.576390 0.826392 0.250000 O
  atom_frac 0.673610 0.923608 0.250000 O
  atom_frac 0.548612 0.951391 0.375000 O
  atom_frac 0.701388 0.798609 0.375000 O
  atom_frac 0.500000 0.750000 0.500000 Ti
  atom_frac 0.625000 0.875000 0.625000 Ti
  atom_frac 0.576390 0.826392 0.500000 O
  atom_frac 0.673610 0.923608 0.500000 O
  atom_frac 0.548612 0.951391 0.625000 O
  atom_frac 0.701388 0.798609 0.625000 O
  atom_frac 0.500000 0.750000 0.750000 Ti
  atom_frac 0.625000 0.875000 0.875000 Ti
  atom_frac 0.576390 0.826392 0.750000 O
  atom_frac 0.673610 0.923608 0.750000 O
  atom_frac 0.548612 0.951391 0.875000 O
  atom_frac 0.701388 0.798609 0.875000 O
  atom_frac 0.750000 0.000000 0.000000 Ti
  atom_frac 0.875000 0.125000 0.125000 Ti
  atom_frac 0.826390 0.076392 0.000000 O
  atom_frac 0.923610 0.173608 0.000000 O
  atom_frac 0.798612 0.201391 0.125000 O
  atom_frac 0.951388 0.048609 0.125000 O
  atom_frac 0.750000 0.000000 0.250000 Ti
  atom_frac 0.875000 0.125000 0.375000 Ti
  atom_frac 0.826390 0.076392 0.250000 O
  atom_frac 0.923610 0.173608 0.250000 O
  atom_frac 0.798612 0.201391 0.375000 O
  atom_frac 0.951388 0.048609 0.375000 O
  atom_frac 0.750000 0.000000 0.500000 Ti
  atom_frac 0.875000 0.125000 0.625000 Ti
  atom_frac 0.826390 0.076392 0.500000 O
  atom_frac 0.923610 0.173608 0.500000 O
  atom_frac 0.798612 0.201391 0.625000 O
  atom_frac 0.951388 0.048609 0.625000 O
  atom_frac 0.750000 0.000000 0.750000 Ti
  atom_frac 0.875000 0.125000 0.875000 Ti
  atom_frac 0.826390 0.076392 0.750000 O
  atom_frac 0.923610 0.173608 0.750000 O
  atom_frac 0.798612 0.201391 0.875000 O
  atom_frac 0.951388 0.048609 0.875000 O
  atom_frac 0.750000 0.250000 0.000000 Ti
  atom_frac 0.875000 0.375000 0.125000 Ti
  atom_frac 0.826390 0.326392 0.000000 O
  atom_frac 0.923610 0.423608 0.000000 O
  atom_frac 0.798612 0.451391 0.125000 O
  atom_frac 0.951388 0.298609 0.125000 O
  atom_frac 0.750000 0.250000 0.250000 Ti
  atom_frac 0.875000 0.375000 0.375000 Ti
  atom_frac 0.826390 0.326392 0.250000 O
  atom_frac 0.923610 0.423608 0.250000 O
  atom_frac 0.798612 0.451391 0.375000 O
  atom_frac 0.951388 0.298609 0.375000 O
  atom_frac 0.750000 0.250000 0.500000 Ti
  atom_frac 0.875000 0.375000 0.625000 Ti
  atom_frac 0.826390 0.326392 0.500000 O
  atom_frac 0.923610 0.423608 0.500000 O
  atom_frac 0.798612 0.451391 0.625000 O
  atom_frac 0.951388 0.298609 0.625000 O
  atom_frac 0.750000 0.250000 0.750000 Ti
  atom_frac 0.875000 0.375000 0.875000 Ti
  atom_frac 0.826390 0.326392 0.750000 O
  atom_frac 0.923610 0.423608 0.750000 O
  atom_frac 0.798612 0.451391 0.875000 O
  atom_frac 0.951388 0.298609 0.875000 O
  atom_frac 0.750000 0.500000 0.000000 Ti
  atom_frac 0.875000 0.625000 0.125000 Ti
  atom_frac 0.826390 0.576392 0.000000 O
  atom_frac 0.923610 0.673608 0.000000 O
  atom_frac 0.798612 0.701391 0.125000 O
  atom_frac 0.951388 0.548609 0.125000 O
  atom_frac 0.750000 0.500000 0.250000 Ti
  atom_frac 0.875000 0.625000 0.375000 Ti
  atom_frac 0.826390 0.576392 0.250000 O
  atom_frac 0.923610 0.673608 0.250000 O
  atom_frac 0.798612 0.701391 0.375000 O
  atom_frac 0.951388 0.548609 0.375000 O
  atom_frac 0.750000 0.500000 0.500000 Ti
  atom_frac 0.875000 0.625000 0.625000 Ti
  atom_frac 0.826390 0.576392 0.500000 O
  atom_frac 0.923610 0.673608 0.500000 O
  atom_frac 0.798612 0.701391 0.625000 O
  atom_frac 0.951388 0.548609 0.625000 O
  atom_frac 0.750000 0.500000 0.750000 Ti
  atom_frac 0.875000 0.625000 0.875000 Ti
  atom_frac 0.826390 0.576392 0.750000 O
  atom_frac 0.923610 0.673608 0.750000 O
  atom_frac 0.798612 0.701391 0.875000 O
  atom_frac 0.951388 0.548609 0.875000 O
  atom_frac 0.750000 0.750000 0.000000 Ti
  atom_frac 0.875000 0.875000 0.125000 Ti
  atom_frac 0.826390 0.826392 0.000000 O
  atom_frac 0.923610 0.923608 0.000000 O
  atom_frac 0.798612 0.951391 0.125000 O
  atom_frac 0.951388 0.798609 0.125000 O
  atom_frac 0.750000 0.750000 0.250000 Ti
  atom_frac 0.875000 0.875000 0.375000 Ti
  atom_frac 0.826390 0.826392 0.250000 O
  atom_frac 0.923610 0.923608 0.250000 O
  atom_frac 0.798612 0.951391 0.375000 O
  atom_frac 0.951388 0.798609 0.375000 O
  atom_frac 0.750000 0.750000 0.500000 Ti
  atom_frac 0.875000 0.875000 0.625000 Ti
  atom_frac 0.826390 0.826392 0.500000 O
  atom_frac 0.923610 0.923608 0.500000 O
  atom_frac 0.798612 0.951391 0.625000 O
  atom_frac 0.951388 0.798609 0.625000 O
  atom_frac 0.750000 0.750000 0.750000 Ti
  atom_frac 0.875000 0.875000 0.875000 Ti
  atom_frac 0.826390 0.826392 0.750000 O
  atom_frac 0.923610 0.923608 0.750000 O
  atom_frac 0.798612 0.951391 0.875000 O
  atom_frac 0.951388 0.798609 0.875000 O
  
  -----------------------------------------------------------------------
  Completed first pass over input file geometry.in .
  -----------------------------------------------------------------------
  

  Basic array size parameters:
  | Number of species                 :        3
  | Number of atoms                   :      384
  | Number of lattice vectors         :        3
  | Max. basis fn. angular momentum   :        4
  | Max. atomic/ionic basis occupied n:        4
  | Max. number of basis fn. types    :        3
  | Max. radial fns per species/type  :       18
  | Max. logarithmic grid size        :     1383
  | Max. radial integration grid size :       73
  | Max. angular integration grid size:      434
  | Max. angular grid division number :        8
  | Radial grid for Hartree potential :     1383
  | Number of spin channels           :        2

------------------------------------------------------------
          Reading file control.in.
------------------------------------------------------------
  XC: Using PBE gradient-corrected functionals.
  Scalar relativistic treatment of kinetic energy: on-site free-atom approximation to ZORA.
  Kohn-Sham eigenvalues and eigenfunctions calculated by LAPACK via ELSI.
  Found k-point grid:         2         2         3
  Charged system requested: Charge =   0.100000E+01.
  Spin treatment: Spin density functional theory - collinear spins.
  Initial spin moment per atom:   0.0000
  Occupation forced using projector   1      257   0.00000000
  Reading restart information from file restart000
  Mulliken charge analysis will be performed and summarised to the main output.
  Full Mulliken charge analysis will be written to file 'Mulliken.out'.
 
  Reading configuration options for species Ti                  .
  | Found nuclear charge :  22.0000
  | Found atomic mass :    47.8670000000000      amu
  | Found l_max for Hartree potential  :   4
  | Found cutoff potl. onset [A], width [A], scale factor :    3.50000    1.50000    1.00000
  | Threshold for basis-dependent cutoff potential is   0.100000E-03
  | Found data for basic radial integration grid :    48 points, outermost radius =    5.000 A
  | Found multiplier for basic radial grid :   1
  | Found angular grid specification: user-specified.
  | Specified grid contains     5 separate shells.
  | Check grid settings after all constraints further below.
  | Found free-atom valence shell :  4 s   2.000
  | Found free-atom valence shell :  3 p   6.000
  | Found free-atom valence shell :  3 d   2.000
  | Found free-ion valence shell :  4 s   1.000
  | Found free-ion valence shell :  3 p   6.000
  | Found free-ion valence shell :  3 d   1.000
  | Found hydrogenic basis function :  4 f   8.000
  | Found hydrogenic basis function :  3 d   2.700
  | Found ionic basis function :  4 p , default cutoff radius.
  | Found ionic basis function :  4 s , default cutoff radius.
 | Encountered keyword species, ending the description of species Ti                  .
  Species Ti                  : Missing cutoff potential type.
  Defaulting to exp(1/x)/(1-x)^2 type cutoff potential.
  Species Ti: No 'logarithmic' tag. Using default grid for free atom:
  | Default logarithmic grid data [bohr] : 0.1000E-03 0.1000E+03 0.1012E+01
  | Will include ionic basis functions of  2.0-fold positive Ti                   ion.
  Species Ti: On-site basis accuracy parameter (for Gram-Schmidt orthonormalisation) not specified.
  Using default value basis_acc =  0.1000000E-03.
  Species Ti                  : Using default innermost maximum threshold i_radial=  2 for radial functions.
  Species Ti                  : Default cutoff onset for free atom density etc. : 0.35000000E+01 AA.
  Species Ti                  : Basic radial grid will be enhanced according to radial_multiplier =   1, to contain    48 grid points.
 
  Reading configuration options for species O                   .
  | Found nuclear charge :   8.0000
  | Found atomic mass :    15.9994000000000      amu
  | Found l_max for Hartree potential  :   4
  | Found cutoff potl. onset [A], width [A], scale factor :    3.50000    1.50000    1.00000
  | Threshold for basis-dependent cutoff potential is   0.100000E-03
  | Found data for basic radial integration grid :    36 points, outermost radius =    5.000 A
  | Found multiplier for basic radial grid :   1
  | Found angular grid specification: user-specified.
  | Specified grid contains     5 separate shells.
  | Check grid settings after all constraints further below.
  | Found free-atom valence shell :  2 s   2.000
  | Found free-atom valence shell :  2 p   4.000
  | Found free-ion valence shell :  2 s   1.000
  | Found free-ion valence shell :  2 p   3.000
  | Found hydrogenic basis function :  2 p   1.800
  | Found hydrogenic basis function :  3 d   7.600
  | Found hydrogenic basis function :  3 s   6.400
 | Encountered keyword species, ending the description of species O                   .
  Species O                   : Missing cutoff potential type.
  Defaulting to exp(1/x)/(1-x)^2 type cutoff potential.
  Species O : No 'logarithmic' tag. Using default grid for free atom:
  | Default logarithmic grid data [bohr] : 0.1000E-03 0.1000E+03 0.1012E+01
  Species O : On-site basis accuracy parameter (for Gram-Schmidt orthonormalisation) not specified.
  Using default value basis_acc =  0.1000000E-03.
  Species O                   : Using default innermost maximum threshold i_radial=  2 for radial functions.
  Species O                   : Default cutoff onset for free atom density etc. : 0.35000000E+01 AA.
  Species O                   : Basic radial grid will be enhanced according to radial_multiplier =   1, to contain    36 grid points.
 
  Reading configuration options for species O1                  .
  | Found nuclear charge :   8.0000
  | Found atomic mass :    15.9994000000000      amu
  | Found l_max for Hartree potential  :   6
  | Found cutoff potl. onset [A], width [A], scale factor :    4.00000    2.00000    1.00000
  | Threshold for basis-dependent cutoff potential is   0.100000E-03
  | Found data for basic radial integration grid :    36 points, outermost radius =    7.000 A
  | Found multiplier for basic radial grid :   2
  | Found angular grid specification: user-specified.
  | Specified grid contains     6 separate shells.
  | Check grid settings after all constraints further below.
  | Found free-atom valence shell :  2 s   2.000
  | Found free-atom valence shell :  2 p   4.000
  | Found free-ion valence shell :  2 s   1.000
  | Found free-ion valence shell :  2 p   3.000
  | Found hydrogenic basis function :  2 p   1.800
  | Found hydrogenic basis function :  3 d   7.600
  | Found hydrogenic basis function :  3 s   6.400
  | Found hydrogenic basis function :  4 f  11.600
  | Found hydrogenic basis function :  3 p   6.200
  | Found hydrogenic basis function :  3 d   5.600
  | Found hydrogenic basis function :  5 g  17.600
  | Found hydrogenic basis function :  1 s   0.750
  | Found ionic basis function :  2 p , default cutoff radius.
  | Found hydrogenic basis function :  4 f  10.800
  | Found hydrogenic basis function :  4 d   4.700
  | Found hydrogenic basis function :  2 s   6.800
  | Found hydrogenic basis function :  1 s  12.000
  | Found hydrogenic basis function :  1 s  10.000
  | Found hydrogenic basis function :  1 s   6.000
  | Found hydrogenic basis function :  2 s  10.000
  | Found hydrogenic basis function :  2 p   8.000
  | Found hydrogenic basis function :  2 p   6.000
  | Found hydrogenic basis function :  3 d   8.000
  Species O1                  : Missing cutoff potential type.
  Defaulting to exp(1/x)/(1-x)^2 type cutoff potential.
  Species O1: No 'logarithmic' tag. Using default grid for free atom:
  | Default logarithmic grid data [bohr] : 0.1000E-03 0.1000E+03 0.1012E+01
  | Will include ionic basis functions of  2.0-fold positive O1                   ion.
  Species O1: On-site basis accuracy parameter (for Gram-Schmidt orthonormalisation) not specified.
  Using default value basis_acc =  0.1000000E-03.
  Species O1                  : Using default innermost maximum threshold i_radial=  2 for radial functions.
  Species O1                  : Default cutoff onset for free atom density etc. : 0.40000000E+01 AA.
  Species O1                  : Basic radial grid will be enhanced according to radial_multiplier =   2, to contain    73 grid points.
 
  Finished reading input file 'control.in'.
 
------------------------------------------------------------


------------------------------------------------------------
          Reading geometry description geometry.in.
------------------------------------------------------------
  | The smallest distance between any two atoms is         1.95947683 AA.
  | The first atom of this pair is atom number                     55 .
  | The second atom of this pair is atom number                   348 .
  | Wigner-Seitz cell of the first atom image           0     0     0 .
  | (The Wigner-Seitz cell of the second atom is 0 0 0  by definition.)

  Symmetry information by spglib:
  | Precision set to  0.1E-04
  | Number of Operations  : 2
  | Space group           : 6
  | International         : Pm      /op
  | Schoenflies           : Cs^1
  Input structure read successfully.
  The structure contains      384 atoms,  and a total of       4863.000 electrons.

  Input geometry:
  | Unit cell:
  |       18.57224700        0.00048600        0.00000000
  |        0.00048700       18.57234700        0.00000000
  |        0.00000000        0.00000000       11.89153100
  | Atomic structure:
  |       Atom                x [A]            y [A]            z [A]
  |    1: Species Ti           18.57224700        0.00048600        0.00000000
  |    2: Species Ti            2.32159175        2.32160413        1.48644138
  |    3: Species O1            1.41877115        1.41881586        0.00000000
  |    4: Species O             3.22441235        3.22439239        0.00000000
  |    5: Species O             0.90293215        3.74032716        1.48644138
  |    6: Species O             3.74025135        0.90288109        1.48644138
  |    7: Species Ti           18.57224700        0.00048600        2.97288275
  |    8: Species Ti            2.32159175        2.32160413        4.45932413
  |    9: Species O             1.41877115        1.41881586        2.97288275
  |   10: Species O             3.22441235        3.22439239        2.97288275
  |   11: Species O             0.90293215        3.74032716        4.45932413
  |   12: Species O             3.74025135        0.90288109        4.45932413
  |   13: Species Ti           18.57224700        0.00048600        5.94576550
  |   14: Species Ti            2.32159175        2.32160413        7.43220687
  |   15: Species O             1.41877115        1.41881586        5.94576550
  |   16: Species O             3.22441235        3.22439239        5.94576550
  |   17: Species O             0.90293215        3.74032716        7.43220687
  |   18: Species O             3.74025135        0.90288109        7.43220687
  |   19: Species Ti           18.57224700        0.00048600        8.91864825
  |   20: Species Ti            2.32159175        2.32160413       10.40508963
  |   21: Species O             1.41877115        1.41881586        8.91864825
  |   22: Species O             3.22441235        3.22439239        8.91864825
  |   23: Species O             0.90293215        3.74032716       10.40508963
  |   24: Species O             3.74025135        0.90288109       10.40508963
  |   25: Species Ti           18.57236875        4.64357275        0.00000000
  |   26: Species Ti            2.32171350        6.96469088        1.48644138
  |   27: Species O             1.41889290        6.06190261        0.00000000
  |   28: Species O             3.22453410        7.86747914        0.00000000
  |   29: Species O             0.90305390        8.38341391        1.48644138
  |   30: Species O             3.74037310        5.54596784        1.48644138
  |   31: Species Ti           18.57236875        4.64357275        2.97288275
  |   32: Species Ti            2.32171350        6.96469088        4.45932413
  |   33: Species O             1.41889290        6.06190261        2.97288275
  |   34: Species O             3.22453410        7.86747914        2.97288275
  |   35: Species O             0.90305390        8.38341391        4.45932413
  |   36: Species O             3.74037310        5.54596784        4.45932413
  |   37: Species Ti           18.57236875        4.64357275        5.94576550
  |   38: Species Ti            2.32171350        6.96469088        7.43220687
  |   39: Species O             1.41889290        6.06190261        5.94576550
  |   40: Species O             3.22453410        7.86747914        5.94576550
  |   41: Species O             0.90305390        8.38341391        7.43220687
  |   42: Species O             3.74037310        5.54596784        7.43220687
  |   43: Species Ti           18.57236875        4.64357275        8.91864825
  |   44: Species Ti            2.32171350        6.96469088       10.40508963
  |   45: Species O             1.41889290        6.06190261        8.91864825
  |   46: Species O             3.22453410        7.86747914        8.91864825
  |   47: Species O             0.90305390        8.38341391       10.40508963
  |   48: Species O             3.74037310        5.54596784       10.40508963
  |   49: Species Ti           18.57249050        9.28665950        0.00000000
  |   50: Species Ti            2.32183525       11.60777763        1.48644138
  |   51: Species O             1.41901465       10.70498936        0.00000000
  |   52: Species O             3.22465585       12.51056589        0.00000000
  |   53: Species O             0.90317565       13.02650066        1.48644138
  |   54: Species O             3.74049485       10.18905459        1.48644138
  |   55: Species Ti           18.57249050        9.28665950        2.97288275
  |   56: Species Ti            2.32183525       11.60777763        4.45932413
  |   57: Species O             1.41901465       10.70498936        2.97288275
  |   58: Species O             3.22465585       12.51056589        2.97288275
  |   59: Species O             0.90317565       13.02650066        4.45932413
  |   60: Species O             3.74049485       10.18905459        4.45932413
  |   61: Species Ti           18.57249050        9.28665950        5.94576550
  |   62: Species Ti            2.32183525       11.60777763        7.43220687
  |   63: Species O             1.41901465       10.70498936        5.94576550
  |   64: Species O             3.22465585       12.51056589        5.94576550
  |   65: Species O             0.90317565       13.02650066        7.43220687
  |   66: Species O             3.74049485       10.18905459        7.43220687
  |   67: Species Ti           18.57249050        9.28665950        8.91864825
  |   68: Species Ti            2.32183525       11.60777763       10.40508963
  |   69: Species O             1.41901465       10.70498936        8.91864825
  |   70: Species O             3.22465585       12.51056589        8.91864825
  |   71: Species O             0.90317565       13.02650066       10.40508963
  |   72: Species O             3.74049485       10.18905459       10.40508963
  |   73: Species Ti           18.57261225       13.92974625        0.00000000
  |   74: Species Ti            2.32195700       16.25086438        1.48644138
  |   75: Species O             1.41913640       15.34807611        0.00000000
  |   76: Species O             3.22477760       17.15365264        0.00000000
  |   77: Species O             0.90329740       17.66958741        1.48644138
  |   78: Species O             3.74061660       14.83214134        1.48644138
  |   79: Species Ti           18.57261225       13.92974625        2.97288275
  |   80: Species Ti            2.32195700       16.25086438        4.45932413
  |   81: Species O             1.41913640       15.34807611        2.97288275
  |   82: Species O             3.22477760       17.15365264        2.97288275
  |   83: Species O             0.90329740       17.66958741        4.45932413
  |   84: Species O             3.74061660       14.83214134        4.45932413
  |   85: Species Ti           18.57261225       13.92974625        5.94576550
  |   86: Species Ti            2.32195700       16.25086438        7.43220687
  |   87: Species O             1.41913640       15.34807611        5.94576550
  |   88: Species O             3.22477760       17.15365264        5.94576550
  |   89: Species O             0.90329740       17.66958741        7.43220687
  |   90: Species O             3.74061660       14.83214134        7.43220687
  |   91: Species Ti           18.57261225       13.92974625        8.91864825
  |   92: Species Ti            2.32195700       16.25086438       10.40508963
  |   93: Species O             1.41913640       15.34807611        8.91864825
  |   94: Species O             3.22477760       17.15365264        8.91864825
  |   95: Species O             0.90329740       17.66958741       10.40508963
  |   96: Species O             3.74061660       14.83214134       10.40508963
  |   97: Species Ti            4.64306175        0.00012150        0.00000000
  |   98: Species Ti            6.96465350        2.32172563        1.48644138
  |   99: Species O             6.06183290        1.41893736        0.00000000
  |  100: Species O             7.86747410        3.22451389        0.00000000
  |  101: Species O             5.54599390        3.74044866        1.48644138
  |  102: Species O             8.38331310        0.90300259        1.48644138
  |  103: Species Ti            4.64306175        0.00012150        2.97288275
  |  104: Species Ti            6.96465350        2.32172563        4.45932413
  |  105: Species O             6.06183290        1.41893736        2.97288275
  |  106: Species O             7.86747410        3.22451389        2.97288275
  |  107: Species O             5.54599390        3.74044866        4.45932413
  |  108: Species O             8.38331310        0.90300259        4.45932413
  |  109: Species Ti            4.64306175        0.00012150        5.94576550
  |  110: Species Ti            6.96465350        2.32172563        7.43220687
  |  111: Species O             6.06183290        1.41893736        5.94576550
  |  112: Species O             7.86747410        3.22451389        5.94576550
  |  113: Species O             5.54599390        3.74044866        7.43220687
  |  114: Species O             8.38331310        0.90300259        7.43220687
  |  115: Species Ti            4.64306175        0.00012150        8.91864825
  |  116: Species Ti            6.96465350        2.32172563       10.40508963
  |  117: Species O             6.06183290        1.41893736        8.91864825
  |  118: Species O             7.86747410        3.22451389        8.91864825
  |  119: Species O             5.54599390        3.74044866       10.40508963
  |  120: Species O             8.38331310        0.90300259       10.40508963
  |  121: Species Ti            4.64318350        4.64320825        0.00000000
  |  122: Species Ti            6.96477525        6.96481238        1.48644138
  |  123: Species O             6.06195465        6.06202411        0.00000000
  |  124: Species O             7.86759585        7.86760064        0.00000000
  |  125: Species O             5.54611565        8.38353541        1.48644138
  |  126: Species O             8.38343485        5.54608934        1.48644138
  |  127: Species Ti            4.64318350        4.64320825        2.97288275
  |  128: Species Ti            6.96477525        6.96481238        4.45932413
  |  129: Species O             6.06195465        6.06202411        2.97288275
  |  130: Species O             7.86759585        7.86760064        2.97288275
  |  131: Species O             5.54611565        8.38353541        4.45932413
  |  132: Species O             8.38343485        5.54608934        4.45932413
  |  133: Species Ti            4.64318350        4.64320825        5.94576550
  |  134: Species Ti            6.96477525        6.96481238        7.43220687
  |  135: Species O             6.06195465        6.06202411        5.94576550
  |  136: Species O             7.86759585        7.86760064        5.94576550
  |  137: Species O             5.54611565        8.38353541        7.43220687
  |  138: Species O             8.38343485        5.54608934        7.43220687
  |  139: Species Ti            4.64318350        4.64320825        8.91864825
  |  140: Species Ti            6.96477525        6.96481238       10.40508963
  |  141: Species O             6.06195465        6.06202411        8.91864825
  |  142: Species O             7.86759585        7.86760064        8.91864825
  |  143: Species O             5.54611565        8.38353541       10.40508963
  |  144: Species O             8.38343485        5.54608934       10.40508963
  |  145: Species Ti            4.64330525        9.28629500        0.00000000
  |  146: Species Ti            6.96489700       11.60789912        1.48644138
  |  147: Species O             6.06207640       10.70511086        0.00000000
  |  148: Species O             7.86771760       12.51068739        0.00000000
  |  149: Species O             5.54623740       13.02662216        1.48644138
  |  150: Species O             8.38355660       10.18917609        1.48644138
  |  151: Species Ti            4.64330525        9.28629500        2.97288275
  |  152: Species Ti            6.96489700       11.60789912        4.45932413
  |  153: Species O             6.06207640       10.70511086        2.97288275
  |  154: Species O             7.86771760       12.51068739        2.97288275
  |  155: Species O             5.54623740       13.02662216        4.45932413
  |  156: Species O             8.38355660       10.18917609        4.45932413
  |  157: Species Ti            4.64330525        9.28629500        5.94576550
  |  158: Species Ti            6.96489700       11.60789912        7.43220687
  |  159: Species O             6.06207640       10.70511086        5.94576550
  |  160: Species O             7.86771760       12.51068739        5.94576550
  |  161: Species O             5.54623740       13.02662216        7.43220687
  |  162: Species O             8.38355660       10.18917609        7.43220687
  |  163: Species Ti            4.64330525        9.28629500        8.91864825
  |  164: Species Ti            6.96489700       11.60789912       10.40508963
  |  165: Species O             6.06207640       10.70511086        8.91864825
  |  166: Species O             7.86771760       12.51068739        8.91864825
  |  167: Species O             5.54623740       13.02662216       10.40508963
  |  168: Species O             8.38355660       10.18917609       10.40508963
  |  169: Species Ti            4.64342700       13.92938175        0.00000000
  |  170: Species Ti            6.96501875       16.25098588        1.48644138
  |  171: Species O             6.06219815       15.34819761        0.00000000
  |  172: Species O             7.86783935       17.15377414        0.00000000
  |  173: Species O             5.54635915       17.66970891        1.48644138
  |  174: Species O             8.38367835       14.83226284        1.48644138
  |  175: Species Ti            4.64342700       13.92938175        2.97288275
  |  176: Species Ti            6.96501875       16.25098588        4.45932413
  |  177: Species O             6.06219815       15.34819761        2.97288275
  |  178: Species O             7.86783935       17.15377414        2.97288275
  |  179: Species O             5.54635915       17.66970891        4.45932413
  |  180: Species O             8.38367835       14.83226284        4.45932413
  |  181: Species Ti            4.64342700       13.92938175        5.94576550
  |  182: Species Ti            6.96501875       16.25098588        7.43220687
  |  183: Species O             6.06219815       15.34819761        5.94576550
  |  184: Species O             7.86783935       17.15377414        5.94576550
  |  185: Species O             5.54635915       17.66970891        7.43220687
  |  186: Species O             8.38367835       14.83226284        7.43220687
  |  187: Species Ti            4.64342700       13.92938175        8.91864825
  |  188: Species Ti            6.96501875       16.25098588       10.40508963
  |  189: Species O             6.06219815       15.34819761        8.91864825
  |  190: Species O             7.86783935       17.15377414        8.91864825
  |  191: Species O             5.54635915       17.66970891       10.40508963
  |  192: Species O             8.38367835       14.83226284       10.40508963
  |  193: Species Ti            9.28612350        0.00024300        0.00000000
  |  194: Species Ti           11.60771525        2.32184713        1.48644138
  |  195: Species O            10.70489465        1.41905886        0.00000000
  |  196: Species O            12.51053585        3.22463539        0.00000000
  |  197: Species O            10.18905565        3.74057016        1.48644138
  |  198: Species O            13.02637485        0.90312409        1.48644138
  |  199: Species Ti            9.28612350        0.00024300        2.97288275
  |  200: Species Ti           11.60771525        2.32184713        4.45932413
  |  201: Species O            10.70489465        1.41905886        2.97288275
  |  202: Species O            12.51053585        3.22463539        2.97288275
  |  203: Species O            10.18905565        3.74057016        4.45932413
  |  204: Species O            13.02637485        0.90312409        4.45932413
  |  205: Species Ti            9.28612350        0.00024300        5.94576550
  |  206: Species Ti           11.60771525        2.32184713        7.43220687
  |  207: Species O            10.70489465        1.41905886        5.94576550
  |  208: Species O            12.51053585        3.22463539        5.94576550
  |  209: Species O            10.18905565        3.74057016        7.43220687
  |  210: Species O            13.02637485        0.90312409        7.43220687
  |  211: Species Ti            9.28612350        0.00024300        8.91864825
  |  212: Species Ti           11.60771525        2.32184713       10.40508963
  |  213: Species O            10.70489465        1.41905886        8.91864825
  |  214: Species O            12.51053585        3.22463539        8.91864825
  |  215: Species O            10.18905565        3.74057016       10.40508963
  |  216: Species O            13.02637485        0.90312409       10.40508963
  |  217: Species Ti            9.28624525        4.64332975        0.00000000
  |  218: Species Ti           11.60783700        6.96493388        1.48644138
  |  219: Species O            10.70501640        6.06214561        0.00000000
  |  220: Species O            12.51065760        7.86772214        0.00000000
  |  221: Species O            10.18917740        8.38365691        1.48644138
  |  222: Species O            13.02649660        5.54621084        1.48644138
  |  223: Species Ti            9.28624525        4.64332975        2.97288275
  |  224: Species Ti           11.60783700        6.96493388        4.45932413
  |  225: Species O            10.70501640        6.06214561        2.97288275
  |  226: Species O            12.51065760        7.86772214        2.97288275
  |  227: Species O            10.18917740        8.38365691        4.45932413
  |  228: Species O            13.02649660        5.54621084        4.45932413
  |  229: Species Ti            9.28624525        4.64332975        5.94576550
  |  230: Species Ti           11.60783700        6.96493388        7.43220687
  |  231: Species O            10.70501640        6.06214561        5.94576550
  |  232: Species O            12.51065760        7.86772214        5.94576550
  |  233: Species O            10.18917740        8.38365691        7.43220687
  |  234: Species O            13.02649660        5.54621084        7.43220687
  |  235: Species Ti            9.28624525        4.64332975        8.91864825
  |  236: Species Ti           11.60783700        6.96493388       10.40508963
  |  237: Species O            10.70501640        6.06214561        8.91864825
  |  238: Species O            12.51065760        7.86772214        8.91864825
  |  239: Species O            10.18917740        8.38365691       10.40508963
  |  240: Species O            13.02649660        5.54621084       10.40508963
  |  241: Species Ti            9.28636700        9.28641650        0.00000000
  |  242: Species Ti           11.60795875       11.60802062        1.48644138
  |  243: Species O            10.70513815       10.70523236        0.00000000
  |  244: Species O            12.51077935       12.51080889        0.00000000
  |  245: Species O            10.18929915       13.02674366        1.48644138
  |  246: Species O            13.02661835       10.18929759        1.48644138
  |  247: Species Ti            9.28636700        9.28641650        2.97288275
  |  248: Species Ti           11.60795875       11.60802062        4.45932413
  |  249: Species O            10.70513815       10.70523236        2.97288275
  |  250: Species O            12.51077935       12.51080889        2.97288275
  |  251: Species O            10.18929915       13.02674366        4.45932413
  |  252: Species O            13.02661835       10.18929759        4.45932413
  |  253: Species Ti            9.28636700        9.28641650        5.94576550
  |  254: Species Ti           11.60795875       11.60802062        7.43220687
  |  255: Species O            10.70513815       10.70523236        5.94576550
  |  256: Species O            12.51077935       12.51080889        5.94576550
  |  257: Species O            10.18929915       13.02674366        7.43220687
  |  258: Species O            13.02661835       10.18929759        7.43220687
  |  259: Species Ti            9.28636700        9.28641650        8.91864825
  |  260: Species Ti           11.60795875       11.60802062       10.40508963
  |  261: Species O            10.70513815       10.70523236        8.91864825
  |  262: Species O            12.51077935       12.51080889        8.91864825
  |  263: Species O            10.18929915       13.02674366       10.40508963
  |  264: Species O            13.02661835       10.18929759       10.40508963
  |  265: Species Ti            9.28648875       13.92950325        0.00000000
  |  266: Species Ti           11.60808050       16.25110738        1.48644138
  |  267: Species O            10.70525990       15.34831911        0.00000000
  |  268: Species O            12.51090110       17.15389564        0.00000000
  |  269: Species O            10.18942090       17.66983041        1.48644138
  |  270: Species O            13.02674010       14.83238434        1.48644138
  |  271: Species Ti            9.28648875       13.92950325        2.97288275
  |  272: Species Ti           11.60808050       16.25110738        4.45932413
  |  273: Species O            10.70525990       15.34831911        2.97288275
  |  274: Species O            12.51090110       17.15389564        2.97288275
  |  275: Species O            10.18942090       17.66983041        4.45932413
  |  276: Species O            13.02674010       14.83238434        4.45932413
  |  277: Species Ti            9.28648875       13.92950325        5.94576550
  |  278: Species Ti           11.60808050       16.25110738        7.43220687
  |  279: Species O            10.70525990       15.34831911        5.94576550
  |  280: Species O            12.51090110       17.15389564        5.94576550
  |  281: Species O            10.18942090       17.66983041        7.43220687
  |  282: Species O            13.02674010       14.83238434        7.43220687
  |  283: Species Ti            9.28648875       13.92950325        8.91864825
  |  284: Species Ti           11.60808050       16.25110738       10.40508963
  |  285: Species O            10.70525990       15.34831911        8.91864825
  |  286: Species O            12.51090110       17.15389564        8.91864825
  |  287: Species O            10.18942090       17.66983041       10.40508963
  |  288: Species O            13.02674010       14.83238434       10.40508963
  |  289: Species Ti           13.92918525        0.00036450        0.00000000
  |  290: Species Ti           16.25077700        2.32196863        1.48644138
  |  291: Species O            15.34795640        1.41918036        0.00000000
  |  292: Species O            17.15359760        3.22475689        0.00000000
  |  293: Species O            14.83211740        3.74069166        1.48644138
  |  294: Species O            17.66943660        0.90324559        1.48644138
  |  295: Species Ti           13.92918525        0.00036450        2.97288275
  |  296: Species Ti           16.25077700        2.32196863        4.45932413
  |  297: Species O            15.34795640        1.41918036        2.97288275
  |  298: Species O            17.15359760        3.22475689        2.97288275
  |  299: Species O            14.83211740        3.74069166        4.45932413
  |  300: Species O            17.66943660        0.90324559        4.45932413
  |  301: Species Ti           13.92918525        0.00036450        5.94576550
  |  302: Species Ti           16.25077700        2.32196863        7.43220687
  |  303: Species O            15.34795640        1.41918036        5.94576550
  |  304: Species O            17.15359760        3.22475689        5.94576550
  |  305: Species O            14.83211740        3.74069166        7.43220687
  |  306: Species O            17.66943660        0.90324559        7.43220687
  |  307: Species Ti           13.92918525        0.00036450        8.91864825
  |  308: Species Ti           16.25077700        2.32196863       10.40508963
  |  309: Species O            15.34795640        1.41918036        8.91864825
  |  310: Species O            17.15359760        3.22475689        8.91864825
  |  311: Species O            14.83211740        3.74069166       10.40508963
  |  312: Species O            17.66943660        0.90324559       10.40508963
  |  313: Species Ti           13.92930700        4.64345125        0.00000000
  |  314: Species Ti           16.25089875        6.96505538        1.48644138
  |  315: Species O            15.34807815        6.06226711        0.00000000
  |  316: Species O            17.15371935        7.86784364        0.00000000
  |  317: Species O            14.83223915        8.38377841        1.48644138
  |  318: Species O            17.66955835        5.54633234        1.48644138
  |  319: Species Ti           13.92930700        4.64345125        2.97288275
  |  320: Species Ti           16.25089875        6.96505538        4.45932413
  |  321: Species O            15.34807815        6.06226711        2.97288275
  |  322: Species O            17.15371935        7.86784364        2.97288275
  |  323: Species O            14.83223915        8.38377841        4.45932413
  |  324: Species O            17.66955835        5.54633234        4.45932413
  |  325: Species Ti           13.92930700        4.64345125        5.94576550
  |  326: Species Ti           16.25089875        6.96505538        7.43220687
  |  327: Species O            15.34807815        6.06226711        5.94576550
  |  328: Species O            17.15371935        7.86784364        5.94576550
  |  329: Species O            14.83223915        8.38377841        7.43220687
  |  330: Species O            17.66955835        5.54633234        7.43220687
  |  331: Species Ti           13.92930700        4.64345125        8.91864825
  |  332: Species Ti           16.25089875        6.96505538       10.40508963
  |  333: Species O            15.34807815        6.06226711        8.91864825
  |  334: Species O            17.15371935        7.86784364        8.91864825
  |  335: Species O            14.83223915        8.38377841       10.40508963
  |  336: Species O            17.66955835        5.54633234       10.40508963
  |  337: Species Ti           13.92942875        9.28653800        0.00000000
  |  338: Species Ti           16.25102050       11.60814213        1.48644138
  |  339: Species O            15.34819990       10.70535386        0.00000000
  |  340: Species O            17.15384110       12.51093039        0.00000000
  |  341: Species O            14.83236090       13.02686516        1.48644138
  |  342: Species O            17.66968010       10.18941909        1.48644138
  |  343: Species Ti           13.92942875        9.28653800        2.97288275
  |  344: Species Ti           16.25102050       11.60814213        4.45932413
  |  345: Species O            15.34819990       10.70535386        2.97288275
  |  346: Species O            17.15384110       12.51093039        2.97288275
  |  347: Species O            14.83236090       13.02686516        4.45932413
  |  348: Species O            17.66968010       10.18941909        4.45932413
  |  349: Species Ti           13.92942875        9.28653800        5.94576550
  |  350: Species Ti           16.25102050       11.60814213        7.43220687
  |  351: Species O            15.34819990       10.70535386        5.94576550
  |  352: Species O            17.15384110       12.51093039        5.94576550
  |  353: Species O            14.83236090       13.02686516        7.43220687
  |  354: Species O            17.66968010       10.18941909        7.43220687
  |  355: Species Ti           13.92942875        9.28653800        8.91864825
  |  356: Species Ti           16.25102050       11.60814213       10.40508963
  |  357: Species O            15.34819990       10.70535386        8.91864825
  |  358: Species O            17.15384110       12.51093039        8.91864825
  |  359: Species O            14.83236090       13.02686516       10.40508963
  |  360: Species O            17.66968010       10.18941909       10.40508963
  |  361: Species Ti           13.92955050       13.92962475        0.00000000
  |  362: Species Ti           16.25114225       16.25122888        1.48644138
  |  363: Species O            15.34832165       15.34844061        0.00000000
  |  364: Species O            17.15396285       17.15401714        0.00000000
  |  365: Species O            14.83248265       17.66995191        1.48644138
  |  366: Species O            17.66980185       14.83250584        1.48644138
  |  367: Species Ti           13.92955050       13.92962475        2.97288275
  |  368: Species Ti           16.25114225       16.25122888        4.45932413
  |  369: Species O            15.34832165       15.34844061        2.97288275
  |  370: Species O            17.15396285       17.15401714        2.97288275
  |  371: Species O            14.83248265       17.66995191        4.45932413
  |  372: Species O            17.66980185       14.83250584        4.45932413
  |  373: Species Ti           13.92955050       13.92962475        5.94576550
  |  374: Species Ti           16.25114225       16.25122888        7.43220687
  |  375: Species O            15.34832165       15.34844061        5.94576550
  |  376: Species O            17.15396285       17.15401714        5.94576550
  |  377: Species O            14.83248265       17.66995191        7.43220687
  |  378: Species O            17.66980185       14.83250584        7.43220687
  |  379: Species Ti           13.92955050       13.92962475        8.91864825
  |  380: Species Ti           16.25114225       16.25122888       10.40508963
  |  381: Species O            15.34832165       15.34844061        8.91864825
  |  382: Species O            17.15396285       17.15401714        8.91864825
  |  383: Species O            14.83248265       17.66995191       10.40508963
  |  384: Species O            17.66980185       14.83250584       10.40508963

  Lattice parameters for 3D lattice (in Angstroms) :    18.572247   18.572347   11.891531
  Angle(s) between unit vectors (in degrees)       :    90.000000   90.000000   89.996998


  Quantities derived from the lattice vectors (in Angstrom^-1):
  | Reciprocal lattice vector 1:  0.338310 -0.000009  0.000000
  | Reciprocal lattice vector 2: -0.000009  0.338309  0.000000
  | Reciprocal lattice vector 3:  0.000000  0.000000  0.528375
  | Unit cell volume                               :   0.410175E+04  Angstrom^3

  Fractional coordinates:
                         L1                L2                L3
       atom_frac         1.00000000        0.00000000        0.00000000  Ti
       atom_frac         0.12500000        0.12500000        0.12500000  Ti
       atom_frac         0.07639000        0.07639200        0.00000000  O1
       atom_frac         0.17361000        0.17360800        0.00000000  O
       atom_frac         0.04861200        0.20139100        0.12500000  O
       atom_frac         0.20138800        0.04860900        0.12500000  O
       atom_frac         1.00000000        0.00000000        0.25000000  Ti
       atom_frac         0.12500000        0.12500000        0.37500000  Ti
       atom_frac         0.07639000        0.07639200        0.25000000  O
       atom_frac         0.17361000        0.17360800        0.25000000  O
       atom_frac         0.04861200        0.20139100        0.37500000  O
       atom_frac         0.20138800        0.04860900        0.37500000  O
       atom_frac         1.00000000        0.00000000        0.50000000  Ti
       atom_frac         0.12500000        0.12500000        0.62500000  Ti
       atom_frac         0.07639000        0.07639200        0.50000000  O
       atom_frac         0.17361000        0.17360800        0.50000000  O
       atom_frac         0.04861200        0.20139100        0.62500000  O
       atom_frac         0.20138800        0.04860900        0.62500000  O
       atom_frac         1.00000000        0.00000000        0.75000000  Ti
       atom_frac         0.12500000        0.12500000        0.87500000  Ti
       atom_frac         0.07639000        0.07639200        0.75000000  O
       atom_frac         0.17361000        0.17360800        0.75000000  O
       atom_frac         0.04861200        0.20139100        0.87500000  O
       atom_frac         0.20138800        0.04860900        0.87500000  O
       atom_frac         1.00000000        0.25000000        0.00000000  Ti
       atom_frac         0.12500000        0.37500000        0.12500000  Ti
       atom_frac         0.07639000        0.32639200        0.00000000  O
       atom_frac         0.17361000        0.42360800        0.00000000  O
       atom_frac         0.04861200        0.45139100        0.12500000  O
       atom_frac         0.20138800        0.29860900        0.12500000  O
       atom_frac         1.00000000        0.25000000        0.25000000  Ti
       atom_frac         0.12500000        0.37500000        0.37500000  Ti
       atom_frac         0.07639000        0.32639200        0.25000000  O
       atom_frac         0.17361000        0.42360800        0.25000000  O
       atom_frac         0.04861200        0.45139100        0.37500000  O
       atom_frac         0.20138800        0.29860900        0.37500000  O
       atom_frac         1.00000000        0.25000000        0.50000000  Ti
       atom_frac         0.12500000        0.37500000        0.62500000  Ti
       atom_frac         0.07639000        0.32639200        0.50000000  O
       atom_frac         0.17361000        0.42360800        0.50000000  O
       atom_frac         0.04861200        0.45139100        0.62500000  O
       atom_frac         0.20138800        0.29860900        0.62500000  O
       atom_frac         1.00000000        0.25000000        0.75000000  Ti
       atom_frac         0.12500000        0.37500000        0.87500000  Ti
       atom_frac         0.07639000        0.32639200        0.75000000  O
       atom_frac         0.17361000        0.42360800        0.75000000  O
       atom_frac         0.04861200        0.45139100        0.87500000  O
       atom_frac         0.20138800        0.29860900        0.87500000  O
       atom_frac         1.00000000        0.50000000        0.00000000  Ti
       atom_frac         0.12500000        0.62500000        0.12500000  Ti
       atom_frac         0.07639000        0.57639200        0.00000000  O
       atom_frac         0.17361000        0.67360800        0.00000000  O
       atom_frac         0.04861200        0.70139100        0.12500000  O
       atom_frac         0.20138800        0.54860900        0.12500000  O
       atom_frac         1.00000000        0.50000000        0.25000000  Ti
       atom_frac         0.12500000        0.62500000        0.37500000  Ti
       atom_frac         0.07639000        0.57639200        0.25000000  O
[...]
  | Total energy evaluation                     :        0.002 s           0.003 s

  Partial memory accounting:
  | Current value for overall tracked memory usage:
  |   Minimum:      481.182 MB (on task  75)
  |   Maximum:     1387.680 MB (on task   2)
  |   Average:      537.875 MB
  | Peak value for overall tracked memory usage:
  |   Minimum:     1373.331 MB (on task  62 after allocating kdm)
  |   Maximum:     5362.331 MB (on task   2 after allocating eval_tmp)
  |   Average:     1623.204 MB
  | Largest tracked array allocation so far:
  |   Minimum:      883.204 MB (KS_eigenvector_complex on task   0)
  |   Maximum:      906.422 MB (KS_eigenvector_complex on task   1)
  |   Average:      884.655 MB
  Note:  These values currently only include a subset of arrays which are explicitly tracked.
  The "true" memory usage will be greater.
------------------------------------------------------------

------------------------------------------------------------
          Begin self-consistency iteration #   95

  Date     :  20240918, Time     :  190440.811
------------------------------------------------------------
  Pulay mixing of updated and previous charge densities.
  Available memory per node after mixing [GB]:    940.82
  Renormalizing the density to the exact electron count on the 3D integration grid.
  | Formal number of electrons (from input files) :    4863.0000000000
  | Integrated number of electrons on 3D grid     :    4863.0000000000
  | Charge integration error                      :       0.0000000000
  | Normalization factor for density and gradient :       1.0000000000

  Evaluating partitioned Hartree potential by multipole expansion.
  | Original multipole sum: apparent total charge =   0.100000E+01
  | Sum of charges compensated after spline to logarithmic grids =  -0.252139E-03
  | Analytical far-field extrapolation by fixed multipoles:
  | Hartree multipole sum: apparent total charge =   0.100000E+01
  Summing up the Hartree potential.
  Time summed over all CPUs for potential: real work        0.803 s, elapsed        0.821 s
  | RMS charge density error from multipole expansion :   0.145553E+00
  | Average real-space part of the electrostatic potential :      0.66452446 eV

  Integrating Hamiltonian matrix: batch-based integration.
  Time summed over all CPUs for integration: real work      611.222 s, elapsed      630.033 s

  Updating Kohn-Sham eigenvalues, eigenvectors, occupation numbers, and Fermi level.
  Determining occupation numbers for Kohn-Sham eigenstates.
  | Chemical potential (Fermi level) in eV                 : -.7865E+01
  | Error in electron count due to remaining E_F inaccuracy: 0.1532E-08

  Current spin moment of the entire structure :
  | N = N_up - N_down (sum over all k points):         1.00000
  | S (sum over all k points)                :         0.50000

  What follows are estimated values for band gap, HOMO, LUMO, etc.
  | They are estimated on a discrete k-point grid and not necessarily exact.
  | For converged numbers, create a DOS and/or band structure plot on a denser k-grid.

  Highest occupied state (VBM) at     -8.67013217 eV (relative to internal zero)
  | Occupation number:      1.00000000
  | K-point:       1 at    0.000000    0.000000    0.000000 (in units of recip. lattice)
  | Spin channel:        1

  Lowest unoccupied state (CBM) at  -547.45703842 eV (relative to internal zero)
  | Occupation number:      0.00000000
  | K-point:       7 at    0.500000    0.500000    0.000000 (in units of recip. lattice)
  | Spin channel:        1

  ESTIMATED overall HOMO-LUMO gap:   -538.78690624 eV between HOMO at k-point 1 and LUMO at k-point 7
  | This appears to be an indirect band gap.
  | Smallest direct gap :   -538.78690624 eV for k_point 1 at    0.000000    0.000000    0.000000 (in units of recip. lattice)
  | Direct gap HOMO spin channel :     1
  | Direct gap LUMO spin channel :     1
  However, the gap value is rather small. Since we use a finite k-point grid,
  this material is most likely metallic (in the sense that there are states
  at or near the Fermi level). A DOS and/or band structure plot is required
  for an unambiguous distinction.

  Total energy components:
  | Sum of eigenvalues            :      -76427.50623583 Ha    -2079698.25855927 eV
  | XC energy correction          :       -7589.91010969 Ha     -206531.96231518 eV
  | XC potential correction       :        9813.43965569 Ha      267037.27973848 eV
  | Free-atom electrostatic energy:      -54731.67811879 Ha    -1489324.73762076 eV
  | Hartree energy correction     :          65.92702890 Ha        1793.96573221 eV
  | Entropy correction            :          -0.00046505 Ha          -0.01265474 eV
  | ---------------------------
  | Total energy                  :     -128869.72777973 Ha    -3506723.71302452 eV
  | Total energy, T -> 0          :     -128869.72824478 Ha    -3506723.72567926 eV  <-- do not rely on this value for anything but (periodic) metals
  | Electronic free energy        :     -128869.72870983 Ha    -3506723.73833399 eV

  Derived energy quantities:
  | Kinetic energy                :      129752.72647194 Ha     3530751.32995128 eV
  | Electrostatic energy          :     -251032.54414198 Ha    -6830943.08066062 eV
  | Energy correction for multipole
  | error in Hartree potential    :           1.30694821 Ha          35.56387023 eV
  | Sum of eigenvalues per atom                           :       -5415.88088166 eV
  | Total energy (T->0) per atom                          :       -9132.09303562 eV  <-- do not rely on this value for anything but (periodic) metals
  | Electronic free energy per atom                       :       -9132.09306858 eV
  Evaluating new KS density using the density matrix
  Evaluating density matrix
  Evaluating density matrix
  Time summed over all CPUs for getting density from density matrix: real work     1159.940 s, elapsed     1190.578 s
  Integration grid: deviation in total charge (<rho> - N_e) =   8.185452E-12
  | <rho_up-rho_dn> = N_up-N_dn =     -1.0000; <|rho_up-rho_dn|> =      1.2783

  Self-consistency convergence accuracy:
  | Change of charge/spin density :  0.8405E-05  0.8851E-05
  | Change of unmixed KS charge/spin density :  0.3833E-05  0.1547E-06
  | Change of sum of eigenvalues  :  0.6774E-03 eV
  | Change of total energy        : -0.2986E-06 eV


------------------------------------------------------------
  End self-consistency iteration #    95       :  max(cpu_time)    wall_clock(cpu1)
  | Time for this iteration                     :      880.585 s         880.617 s
  | Charge density update                       :       37.636 s          37.637 s
  | Density mixing                              :        0.392 s           0.392 s
  | Hartree multipole update                    :        0.033 s           0.033 s
  | Hartree multipole summation                 :        0.889 s           0.889 s
  | Integration                                 :        5.554 s           5.555 s
  | Solution of K.-S. eqns.                     :      836.057 s         836.101 s
  | Total energy evaluation                     :        0.002 s           0.003 s

  Partial memory accounting:
  | Current value for overall tracked memory usage:
  |   Minimum:      481.182 MB (on task  75)
  |   Maximum:     1387.680 MB (on task   2)
  |   Average:      537.875 MB
  | Peak value for overall tracked memory usage:
  |   Minimum:     1373.331 MB (on task  62 after allocating kdm)
  |   Maximum:     5362.331 MB (on task   2 after allocating eval_tmp)
  |   Average:     1623.204 MB
  | Largest tracked array allocation so far:
  |   Minimum:      883.204 MB (KS_eigenvector_complex on task   0)
  |   Maximum:      906.422 MB (KS_eigenvector_complex on task   1)
  |   Average:      884.655 MB
  Note:  These values currently only include a subset of arrays which are explicitly tracked.
  The "true" memory usage will be greater.
------------------------------------------------------------

------------------------------------------------------------
          Begin self-consistency iteration #   96

  Date     :  20240918, Time     :  191921.428
------------------------------------------------------------
  Pulay mixing of updated and previous charge densities.
  Available memory per node after mixing [GB]:    940.88
  Renormalizing the density to the exact electron count on the 3D integration grid.
  | Formal number of electrons (from input files) :    4863.0000000000
  | Integrated number of electrons on 3D grid     :    4863.0000000000
  | Charge integration error                      :      -0.0000000000
  | Normalization factor for density and gradient :       1.0000000000

  Evaluating partitioned Hartree potential by multipole expansion.
  | Original multipole sum: apparent total charge =   0.100000E+01
  | Sum of charges compensated after spline to logarithmic grids =  -0.252139E-03
  | Analytical far-field extrapolation by fixed multipoles:
  | Hartree multipole sum: apparent total charge =   0.100000E+01
  Summing up the Hartree potential.
  Time summed over all CPUs for potential: real work        0.803 s, elapsed        0.821 s
  | RMS charge density error from multipole expansion :   0.145553E+00
  | Average real-space part of the electrostatic potential :      0.66452445 eV

  Integrating Hamiltonian matrix: batch-based integration.
  Time summed over all CPUs for integration: real work      610.808 s, elapsed      629.454 s

  Updating Kohn-Sham eigenvalues, eigenvectors, occupation numbers, and Fermi level.
  Determining occupation numbers for Kohn-Sham eigenstates.
  | Chemical potential (Fermi level) in eV                 : -.7865E+01
  | Error in electron count due to remaining E_F inaccuracy: 0.1532E-08

  Current spin moment of the entire structure :
  | N = N_up - N_down (sum over all k points):         1.00000
  | S (sum over all k points)                :         0.50000

  What follows are estimated values for band gap, HOMO, LUMO, etc.
  | They are estimated on a discrete k-point grid and not necessarily exact.
  | For converged numbers, create a DOS and/or band structure plot on a denser k-grid.

  Highest occupied state (VBM) at     -8.67013113 eV (relative to internal zero)
  | Occupation number:      1.00000000
  | K-point:       1 at    0.000000    0.000000    0.000000 (in units of recip. lattice)
  | Spin channel:        1

  Lowest unoccupied state (CBM) at  -547.45705419 eV (relative to internal zero)
  | Occupation number:      0.00000000
  | K-point:       7 at    0.500000    0.500000    0.000000 (in units of recip. lattice)
  | Spin channel:        1

  ESTIMATED overall HOMO-LUMO gap:   -538.78692306 eV between HOMO at k-point 1 and LUMO at k-point 7
  | This appears to be an indirect band gap.
  | Smallest direct gap :   -538.78692306 eV for k_point 1 at    0.000000    0.000000    0.000000 (in units of recip. lattice)
  | Direct gap HOMO spin channel :     1
  | Direct gap LUMO spin channel :     1
  However, the gap value is rather small. Since we use a finite k-point grid,
  this material is most likely metallic (in the sense that there are states
  at or near the Fermi level). A DOS and/or band structure plot is required
  for an unambiguous distinction.

  Total energy components:
  | Sum of eigenvalues            :      -76427.50622199 Ha    -2079698.25818269 eV
  | XC energy correction          :       -7589.91010922 Ha     -206531.96230230 eV
  | XC potential correction       :        9813.43965511 Ha      267037.27972264 eV
  | Free-atom electrostatic energy:      -54731.67811879 Ha    -1489324.73762076 eV
  | Hartree energy correction     :          65.92701516 Ha        1793.96535844 eV
  | Entropy correction            :          -0.00046505 Ha          -0.01265470 eV
  | ---------------------------
  | Total energy                  :     -128869.72777973 Ha    -3506723.71302467 eV
  | Total energy, T -> 0          :     -128869.72824479 Ha    -3506723.72567937 eV  <-- do not rely on this value for anything but (periodic) metals
  | Electronic free energy        :     -128869.72870984 Ha    -3506723.73833407 eV

  Derived energy quantities:
  | Kinetic energy                :      129752.72646609 Ha     3530751.32979223 eV
  | Electrostatic energy          :     -251032.54413661 Ha    -6830943.08051460 eV
  | Energy correction for multipole
  | error in Hartree potential    :           1.30694820 Ha          35.56387012 eV
  | Sum of eigenvalues per atom                           :       -5415.88088068 eV
  | Total energy (T->0) per atom                          :       -9132.09303562 eV  <-- do not rely on this value for anything but (periodic) metals
  | Electronic free energy per atom                       :       -9132.09306858 eV
  Evaluating new KS density using the density matrix
  Evaluating density matrix
  Evaluating density matrix
  Time summed over all CPUs for getting density from density matrix: real work     1160.132 s, elapsed     1187.893 s
  Integration grid: deviation in total charge (<rho> - N_e) =   1.818989E-11
  | <rho_up-rho_dn> = N_up-N_dn =     -1.0000; <|rho_up-rho_dn|> =      1.2783

  Self-consistency convergence accuracy:
  | Change of charge/spin density :  0.7448E-05  0.8673E-05
  | Change of unmixed KS charge/spin density :  0.1907E-05  0.3545E-07
  | Change of sum of eigenvalues  :  0.3766E-03 eV
  | Change of total energy        : -0.1505E-06 eV


------------------------------------------------------------
  End self-consistency iteration #    96       :  max(cpu_time)    wall_clock(cpu1)
  | Time for this iteration                     :      879.039 s         879.072 s
  | Charge density update                       :       37.538 s          37.540 s
  | Density mixing                              :        0.392 s           0.391 s
  | Hartree multipole update                    :        0.033 s           0.033 s
  | Hartree multipole summation                 :        0.893 s           0.894 s
  | Integration                                 :        5.551 s           5.550 s
  | Solution of K.-S. eqns.                     :      834.612 s         834.653 s
  | Total energy evaluation                     :        0.002 s           0.002 s

  Partial memory accounting:
  | Current value for overall tracked memory usage:
  |   Minimum:      481.182 MB (on task  75)
  |   Maximum:     1387.680 MB (on task   2)
  |   Average:      537.875 MB
  | Peak value for overall tracked memory usage:
  |   Minimum:     1373.331 MB (on task  62 after allocating kdm)
  |   Maximum:     5362.331 MB (on task   2 after allocating eval_tmp)
  |   Average:     1623.204 MB
  | Largest tracked array allocation so far:
  |   Minimum:      883.204 MB (KS_eigenvector_complex on task   0)
  |   Maximum:      906.422 MB (KS_eigenvector_complex on task   1)
  |   Average:      884.655 MB
  Note:  These values currently only include a subset of arrays which are explicitly tracked.
  The "true" memory usage will be greater.
------------------------------------------------------------

------------------------------------------------------------
          Begin self-consistency iteration #   97

  Date     :  20240918, Time     :  193400.500
------------------------------------------------------------
  Pulay mixing of updated and previous charge densities.
  Available memory per node after mixing [GB]:    940.81
  Renormalizing the density to the exact electron count on the 3D integration grid.
  | Formal number of electrons (from input files) :    4863.0000000000
  | Integrated number of electrons on 3D grid     :    4863.0000000000
  | Charge integration error                      :       0.0000000000
  | Normalization factor for density and gradient :       1.0000000000

  Evaluating partitioned Hartree potential by multipole expansion.
  | Original multipole sum: apparent total charge =   0.100000E+01
  | Sum of charges compensated after spline to logarithmic grids =  -0.252139E-03
  | Analytical far-field extrapolation by fixed multipoles:
  | Hartree multipole sum: apparent total charge =   0.100000E+01
  Summing up the Hartree potential.
  Time summed over all CPUs for potential: real work        0.802 s, elapsed        0.821 s
  | RMS charge density error from multipole expansion :   0.145553E+00
  | Average real-space part of the electrostatic potential :      0.66452443 eV

  Integrating Hamiltonian matrix: batch-based integration.
  Time summed over all CPUs for integration: real work      611.069 s, elapsed      629.940 s

  Updating Kohn-Sham eigenvalues, eigenvectors, occupation numbers, and Fermi level.
  Determining occupation numbers for Kohn-Sham eigenstates.
  | Chemical potential (Fermi level) in eV                 : -.7865E+01
  | Error in electron count due to remaining E_F inaccuracy: 0.1532E-08

  Current spin moment of the entire structure :
  | N = N_up - N_down (sum over all k points):         1.00000
  | S (sum over all k points)                :         0.50000

  What follows are estimated values for band gap, HOMO, LUMO, etc.
  | They are estimated on a discrete k-point grid and not necessarily exact.
  | For converged numbers, create a DOS and/or band structure plot on a denser k-grid.

  Highest occupied state (VBM) at     -8.67013154 eV (relative to internal zero)
  | Occupation number:      1.00000000
  | K-point:       1 at    0.000000    0.000000    0.000000 (in units of recip. lattice)
  | Spin channel:        1

  Lowest unoccupied state (CBM) at  -547.45705663 eV (relative to internal zero)
  | Occupation number:      0.00000000
  | K-point:       7 at    0.500000    0.500000    0.000000 (in units of recip. lattice)
  | Spin channel:        1

  ESTIMATED overall HOMO-LUMO gap:   -538.78692509 eV between HOMO at k-point 1 and LUMO at k-point 7
  | This appears to be an indirect band gap.
  | Smallest direct gap :   -538.78692509 eV for k_point 1 at    0.000000    0.000000    0.000000 (in units of recip. lattice)
  | Direct gap HOMO spin channel :     1
  | Direct gap LUMO spin channel :     1
  However, the gap value is rather small. Since we use a finite k-point grid,
  this material is most likely metallic (in the sense that there are states
  at or near the Fermi level). A DOS and/or band structure plot is required
  for an unambiguous distinction.

  Total energy components:
  | Sum of eigenvalues            :      -76427.50623560 Ha    -2079698.25855295 eV
  | XC energy correction          :       -7589.91010791 Ha     -206531.96226686 eV
  | XC potential correction       :        9813.43965341 Ha      267037.27967649 eV
  | Free-atom electrostatic energy:      -54731.67811879 Ha    -1489324.73762076 eV
  | Hartree energy correction     :          65.92702916 Ha        1793.96573941 eV
  | Entropy correction            :          -0.00046505 Ha          -0.01265471 eV
  | ---------------------------
  | Total energy                  :     -128869.72777973 Ha    -3506723.71302466 eV
  | Total energy, T -> 0          :     -128869.72824479 Ha    -3506723.72567937 eV  <-- do not rely on this value for anything but (periodic) metals
  | Electronic free energy        :     -128869.72870984 Ha    -3506723.73833408 eV

  Derived energy quantities:
  | Kinetic energy                :      129752.72645433 Ha     3530751.32947215 eV
  | Electrostatic energy          :     -251032.54412615 Ha    -6830943.08022995 eV
  | Energy correction for multipole
  | error in Hartree potential    :           1.30694819 Ha          35.56386963 eV
  | Sum of eigenvalues per atom                           :       -5415.88088165 eV
  | Total energy (T->0) per atom                          :       -9132.09303562 eV  <-- do not rely on this value for anything but (periodic) metals
  | Electronic free energy per atom                       :       -9132.09306858 eV
  Evaluating new KS density using the density matrix
  Evaluating density matrix
  Evaluating density matrix
