------------------------------------------------------------
          Invoking FHI-aims ...

          When using FHI-aims, please cite the following reference:

            Volker Blum, Ralf Gehrke, Felix Hanke, Paula Havu,
            Ville Havu, Xinguo Ren, Karsten Reuter, and Matthias Scheffler,
            'Ab Initio Molecular Simulations with Numeric Atom-Centered Orbitals',
            Computer Physics Communications 180, 2175-2196 (2009)

          In addition, many other developments in FHI-aims are likely important for
          your particular application. If so, please cite them. A partial list of references
          is written at the end of this file. Thank you for giving credit to the authors
          of these developments.

          For general information about FHI-aims please find us at

            https://fhi-aims.org

          Online tutorials can be found at

            https://fhi-aims-club.gitlab.io/tutorials/tutorials-overview/

          For any questions about FHI-aims, please visit our slack channel at

            https://fhi-aims.slack.com

          and our main development and support site at

            https://aims-git.rz-berlin.mpg.de .

          The latter site, in particular, has a wiki to collect information, as well
          as an issue tracker to log discussions, suggest improvements, and report issues
          or bugs. https://aims-git.rz-berlin.mpg.de is also the main development site
          of the project and all new and updated code versions can be obtained there.
          Please send an email to aims-coordinators@fhi-berlin.mpg.de and we will add
          you to these sites. They are for you and everyone is welcome there.

------------------------------------------------------------



  Date     :  20241013, Time     :  110320.712
  Time zero on CPU 1             :   0.354502000000000E+00  s.
  Internal wall clock time zero  :           498049400.712  s.

  FHI-aims created a unique identifier for this run for later identification
  aims_uuid : AFD83A57-1ECF-4187-AE75-2AC0B38FA8C3

  Build configuration of the current instance of FHI-aims
  -------------------------------------------------------
  FHI-aims version      : 240605
  Commit number         : b001b2e18
  CMake host system     : Linux-6.5.0-41-generic
  CMake version         : 3.22.1
  Fortran compiler      : /opt/intel/oneapi/mpi/2021.12/bin/mpiifort (IntelLLVM) version 2024.1.0
  Fortran compiler flags: -fc=ifx -O3 -ip -fp-model precise
  C compiler            : /opt/intel/oneapi/mpi/2021.12/bin/mpiicc (IntelLLVM) version 2024.1.0
  C compiler flags      : -cc=icx -O3 -ip -fp-model precise -std=gnu99
  C++ compiler          : /opt/intel/oneapi/mpi/2021.12/bin/mpiicpc (IntelLLVM) version 2024.1.0
  C++ compiler flags    : -cxx=icpx -O3 -ip -fp-model precise -std=c++11
  HIP compiler          :
  HIP compiler flags    :
  HIP GPU arch          :
  Using MPI
  Using ScaLAPACK
  Using LibXC
  Using i-PI
  Using RLSY
  Linking against: /opt/intel/oneapi/mkl/2024.1/lib/intel64/libmkl_intel_lp64.so
                   /opt/intel/oneapi/mkl/2024.1/lib/intel64/libmkl_sequential.so
                   /opt/intel/oneapi/mkl/2024.1/lib/intel64/libmkl_core.so
                   /opt/intel/oneapi/mkl/2024.1/lib/intel64/libmkl_blacs_intelmpi_lp64.so
                   /opt/intel/oneapi/mkl/2024.1/lib/intel64/libmkl_scalapack_lp64.so
                   /opt/intel/oneapi/mkl/2024.1/lib/intel64/libmkl_core.so

  Using       32 parallel tasks.
  Task        0 on host RSL-arvutus reporting.
  Task        1 on host RSL-arvutus reporting.
  Task        2 on host RSL-arvutus reporting.
  Task        3 on host RSL-arvutus reporting.
  Task        4 on host RSL-arvutus reporting.
  Task        5 on host RSL-arvutus reporting.
  Task        6 on host RSL-arvutus reporting.
  Task        7 on host RSL-arvutus reporting.
  Task        8 on host RSL-arvutus reporting.
  Task        9 on host RSL-arvutus reporting.
  Task       10 on host RSL-arvutus reporting.
  Task       11 on host RSL-arvutus reporting.
  Task       12 on host RSL-arvutus reporting.
  Task       13 on host RSL-arvutus reporting.
  Task       14 on host RSL-arvutus reporting.
  Task       15 on host RSL-arvutus reporting.
  Task       16 on host RSL-arvutus reporting.
  Task       17 on host RSL-arvutus reporting.
  Task       18 on host RSL-arvutus reporting.
  Task       19 on host RSL-arvutus reporting.
  Task       20 on host RSL-arvutus reporting.
  Task       21 on host RSL-arvutus reporting.
  Task       22 on host RSL-arvutus reporting.
  Task       23 on host RSL-arvutus reporting.
  Task       24 on host RSL-arvutus reporting.
  Task       25 on host RSL-arvutus reporting.
  Task       26 on host RSL-arvutus reporting.
  Task       27 on host RSL-arvutus reporting.
  Task       28 on host RSL-arvutus reporting.
  Task       29 on host RSL-arvutus reporting.
  Task       30 on host RSL-arvutus reporting.
  Task       31 on host RSL-arvutus reporting.

  Memory overcommitment is allowed on your operating system.

  Obtaining array dimensions for all initial allocations:
  
  -----------------------------------------------------------------------
  Parsing control.in (first pass over file, find array dimensions only).
  The contents of control.in will be repeated verbatim below
  unless switched off by setting 'verbatim_writeout .false.' .
  in the first line of control.in .
  -----------------------------------------------------------------------
  
    xc              pbe
    relativistic    zora scalar 1.0e-12
    KS_method	  serial
    k_grid          4 8 2
  
    spin		  collinear
    default_initial_moment	0.0
    charge          0.1
  
    restart_write_only   restart
  
    output          Mulliken
  
  
  ################################################################################
  #
  #  FHI-aims code project
  #  VB, Fritz-Haber Institut, 2009
  #
  #  Suggested "light" defaults for Ti atom (to be pasted into control.in file)
  #  Be sure to double-check any results obtained with these settings for post-processing,
  #  e.g., with the "tight" defaults and larger basis sets.
  #
  ################################################################################
    species        Ti
  #     global species definitions
      nucleus             22
      mass                47.867
  #
      l_hartree           4
  #
      cut_pot             3.5          1.5  1.0
      basis_dep_cutoff    1e-4
  #
      radial_base         48 5.0
      radial_multiplier   1
      angular_grids       specified
        division   0.5171   50
        division   0.9824  110
        division   1.2917  194
        division   1.4940  302
  #      division   1.6934  434
  #      division   1.8425  590
  #      division   2.1901  770
  #      division   2.2896  974
  #      division   2.8244 1202
  #      outer_grid  974
        outer_grid  302
  ################################################################################
  #
  #  Definition of "minimal" basis
  #
  ################################################################################
  #     valence basis states
      valence      4  s   2.
      valence      3  p   6.
      valence      3  d   2.
  #     ion occupancy
      ion_occ      4  s   1.
      ion_occ      3  p   6.
      ion_occ      3  d   1.
  ################################################################################
  #
  #  Suggested additional basis functions. For production calculations,
  #  uncomment them one after another (the most important basis functions are
  #  listed first).
  #
  #  Constructed for dimers: 1.6 A, 1.85 A, 2.5 A, 3.25 A, 4.25 A
  #
  ################################################################################
  #  "First tier" - improvements: -396.25 meV to -19.41 meV
       hydro 4 f 8
       hydro 3 d 2.7
       ionic 4 p auto
  #     hydro 5 g 11.6
       ionic 4 s auto
  #  "Second tier" - improvements: -16.30 meV to -2.03 meV
  #     hydro 3 d 4.4
  #     hydro 6 h 16
  #     hydro 4 f 9.4
  #     hydro 4 p 4.5
  #     hydro 1 s 0.5
  #  "Third tier" - improvements: -6.28 meV to -0.37 meV
  #     hydro 4 d 6.4
  #     hydro 4 f 10
  #     hydro 5 g 12
  #     hydro 2 p 1.7
  #     hydro 6 h 16.4
  #     hydro 4 s 3.8
  #  Further basis functions: -0.45 meV and smaller improvements
  #     hydro 3 d 8.8
  #     hydro 5 p 18
  #     hydro 4 f 22.4
  #     hydro 5 f 7.2  # -0.16 meV
  #     hydro 3 d 2.1  # -0.11 meV
  #     hydro 5 g 7.4  # -0.09 meV
  
  
  ################################################################################
  #
  #  FHI-aims code project
  #  VB, Fritz-Haber Institut, 2009
  #
  #  Suggested "light" defaults for O atom (to be pasted into control.in file)
  #  Be sure to double-check any results obtained with these settings for post-processing,
  #  e.g., with the "tight" defaults and larger basis sets.
  #
  ################################################################################
    species        O
  #     global species definitions
      nucleus             8
      mass                15.9994
  #
      l_hartree           4
  #
      cut_pot             3.5  1.5  1.0
      basis_dep_cutoff    1e-4
  #
      radial_base         36 5.0
      radial_multiplier   1
       angular_grids specified
        division   0.2659   50
        division   0.4451  110
        division   0.6052  194
        division   0.7543  302
  #      division   0.8014  434
  #      division   0.8507  590
  #      division   0.8762  770
  #      division   0.9023  974
  #      division   1.2339 1202
  #      outer_grid 974
        outer_grid 302
  ################################################################################
  #
  #  Definition of "minimal" basis
  #
  ################################################################################
  #     valence basis states
      valence      2  s   2.
      valence      2  p   4.
  #     ion occupancy
      ion_occ      2  s   1.
      ion_occ      2  p   3.
  ################################################################################
  #
  #  Suggested additional basis functions. For production calculations,
  #  uncomment them one after another (the most important basis functions are
  #  listed first).
  #
  #  Constructed for dimers: 1.0 A, 1.208 A, 1.5 A, 2.0 A, 3.0 A
  #
  ################################################################################
  #  "First tier" - improvements: -699.05 meV to -159.38 meV
       hydro 2 p 1.8
       hydro 3 d 7.6
       hydro 3 s 6.4
  #  "Second tier" - improvements: -49.91 meV to -5.39 meV
  #     hydro 4 f 11.6
  #     hydro 3 p 6.2
  #     hydro 3 d 5.6
  #     hydro 5 g 17.6
  #     hydro 1 s 0.75
  #  "Third tier" - improvements: -2.83 meV to -0.50 meV
  #     ionic 2 p auto
  #     hydro 4 f 10.8
  #     hydro 4 d 4.7
  #     hydro 2 s 6.8
  #  "Fourth tier" - improvements: -0.40 meV to -0.12 meV
  #     hydro 3 p 5
  #     hydro 3 s 3.3
  #     hydro 5 g 15.6
  #     hydro 4 f 17.6
  #     hydro 4 d 14
  # Further basis functions - -0.08 meV and below
  #     hydro 3 s 2.1
  #     hydro 4 d 11.6
  #     hydro 3 p 16
  #     hydro 2 s 17.2
  
  ################################################################################
  #
  #  "Core" basis functions and numerical settings for O atom.
  #  Based on “tight” defaults (V. Blum, 2009).
  #
  ################################################################################
    species        O1
  #     global species definitions
      nucleus             8.1
      mass                15.9994
  #
      l_hartree           6
  #
      cut_pot             4.0  2.0  1.0
      basis_dep_cutoff    1e-4
  #
      radial_base         36 7.0
      radial_multiplier   2
       angular_grids specified
        division   0.1817   50
        division   0.3417  110
        division   0.4949  194
        division   0.6251  302
        division   0.8014  434
  #      division   0.8507  590
  #      division   0.8762  770
  #      division   0.9023  974
  #      division   1.2339 1202
  #      outer_grid 974
        outer_grid  434
  ################################################################################
  #
  #  Definition of "minimal" basis
  #
  ################################################################################
  #     valence basis states
      valence      2  s   2.
      valence      2  p   4.1
  #     ion occupancy
      ion_occ      2  s   1.
      ion_occ      2  p   3.
  ################################################################################
  #
  #  Suggested additional basis functions. For production calculations,
  #  uncomment them one after another (the most important basis functions are
  #  listed first).
  #
  #  Constructed for dimers: 1.0 A, 1.208 A, 1.5 A, 2.0 A, 3.0 A
  #
  ################################################################################
  #  "First tier" - improvements: -699.05 meV to -159.38 meV
       hydro 2 p 1.8
       hydro 3 d 7.6
       hydro 3 s 6.4
  #  "Second tier" - improvements: -49.91 meV to -5.39 meV
       hydro 4 f 11.6
       hydro 3 p 6.2
       hydro 3 d 5.6
       hydro 5 g 17.6
       hydro 1 s 0.75
  #  "Third tier" - improvements: -2.83 meV to -0.50 meV
       ionic 2 p auto
       hydro 4 f 10.8
       hydro 4 d 4.7
       hydro 2 s 6.8
  #  "Fourth tier" - improvements: -0.40 meV to -0.12 meV
  #     hydro 3 p 5
  #     hydro 3 s 3.3
  #     hydro 5 g 15.6
  #     hydro 4 f 17.6
  #     hydro 4 d 14
  # Further basis functions - -0.08 meV and below
  #     hydro 3 s 2.1
  #     hydro 4 d 11.6
  #     hydro 3 p 16
  #     hydro 2 s 17.2
  
  # Additional basis functions for atom with a core hole
       hydro 1 s 12.0
       hydro 1 s 10.0
       hydro 1 s 6.0
       hydro 2 s 10.0
       hydro 2 p 8.0
       hydro 2 p 6.0
       hydro 3 d 8.0
  
  -----------------------------------------------------------------------
  Completed first pass over input file control.in .
  -----------------------------------------------------------------------
  
  
  -----------------------------------------------------------------------
  Parsing geometry.in (first pass over file, find array dimensions only).
  The contents of geometry.in will be repeated verbatim below
  unless switched off by setting 'verbatim_writeout .false.' .
  in the first line of geometry.in .
  -----------------------------------------------------------------------
  
  lattice_vector 6.566127 0.000000 0.000000
  lattice_vector 0.000000 2.972883 0.000000
  lattice_vector 0.000000 0.000000 22.332457
  
  atom_frac 0.999994 0.000000 0.368597 O
  atom_frac 0.305556 0.500000 0.425767 O
  atom_frac 0.499997 0.000000 0.425768 Ti
  atom_frac 0.999997 0.500000 0.425768 Ti
  atom_frac 0.694439 0.500000 0.425769 O
  atom_frac 0.000001 0.000000 0.482939 O
  atom_frac 0.499991 0.000000 0.515613 O1
  atom_frac 0.805553 0.500000 0.572783 O
  atom_frac 0.999995 0.000000 0.572784 Ti
  atom_frac 0.499995 0.500000 0.572784 Ti
  atom_frac 0.194436 0.500000 0.572786 O
  atom_frac 0.499998 0.000000 0.629955 O
  
  -----------------------------------------------------------------------
  Completed first pass over input file geometry.in .
  -----------------------------------------------------------------------
  

  Basic array size parameters:
  | Number of species                 :        3
  | Number of atoms                   :       12
  | Number of lattice vectors         :        3
  | Max. basis fn. angular momentum   :        4
  | Max. atomic/ionic basis occupied n:        4
  | Max. number of basis fn. types    :        3
  | Max. radial fns per species/type  :       18
  | Max. logarithmic grid size        :     1383
  | Max. radial integration grid size :       73
  | Max. angular integration grid size:      434
  | Max. angular grid division number :        8
  | Radial grid for Hartree potential :     1383
  | Number of spin channels           :        2

------------------------------------------------------------
          Reading file control.in.
------------------------------------------------------------
  XC: Using PBE gradient-corrected functionals.
  Scalar relativistic treatment of kinetic energy: ZORA.
  Threshold value for ZORA:   0.100000E-11
  Kohn-Sham eigenvalues and eigenfunctions calculated by LAPACK via ELSI.
  Found k-point grid:         4         8         2
  Spin treatment: Spin density functional theory - collinear spins.
  Initial spin moment per atom:   0.0000
  Charged system requested: Charge =   0.100000E+00.
  Writing restart information to file restart000
  Mulliken charge analysis will be performed and summarised to the main output.
  Full Mulliken charge analysis will be written to file 'Mulliken.out'.
 
  Reading configuration options for species Ti                  .
  | Found nuclear charge :  22.0000
  | Found atomic mass :    47.8670000000000      amu
  | Found l_max for Hartree potential  :   4
  | Found cutoff potl. onset [A], width [A], scale factor :    3.50000    1.50000    1.00000
  | Threshold for basis-dependent cutoff potential is   0.100000E-03
  | Found data for basic radial integration grid :    48 points, outermost radius =    5.000 A
  | Found multiplier for basic radial grid :   1
  | Found angular grid specification: user-specified.
  | Specified grid contains     5 separate shells.
  | Check grid settings after all constraints further below.
  | Found free-atom valence shell :  4 s   2.000
  | Found free-atom valence shell :  3 p   6.000
  | Found free-atom valence shell :  3 d   2.000
  | Found free-ion valence shell :  4 s   1.000
  | Found free-ion valence shell :  3 p   6.000
  | Found free-ion valence shell :  3 d   1.000
  | Found hydrogenic basis function :  4 f   8.000
  | Found hydrogenic basis function :  3 d   2.700
  | Found ionic basis function :  4 p , default cutoff radius.
  | Found ionic basis function :  4 s , default cutoff radius.
 | Encountered keyword species, ending the description of species Ti                  .
  Species Ti                  : Missing cutoff potential type.
  Defaulting to exp(1/x)/(1-x)^2 type cutoff potential.
  Species Ti: No 'logarithmic' tag. Using default grid for free atom:
  | Default logarithmic grid data [bohr] : 0.1000E-03 0.1000E+03 0.1012E+01
  | Will include ionic basis functions of  2.0-fold positive Ti                   ion.
  Species Ti: On-site basis accuracy parameter (for Gram-Schmidt orthonormalisation) not specified.
  Using default value basis_acc =  0.1000000E-03.
  Species Ti                  : Using default innermost maximum threshold i_radial=  2 for radial functions.
  Species Ti                  : Default cutoff onset for free atom density etc. : 0.35000000E+01 AA.
  Species Ti                  : Basic radial grid will be enhanced according to radial_multiplier =   1, to contain    48 grid points.
 
  Reading configuration options for species O                   .
  | Found nuclear charge :   8.0000
  | Found atomic mass :    15.9994000000000      amu
  | Found l_max for Hartree potential  :   4
  | Found cutoff potl. onset [A], width [A], scale factor :    3.50000    1.50000    1.00000
  | Threshold for basis-dependent cutoff potential is   0.100000E-03
  | Found data for basic radial integration grid :    36 points, outermost radius =    5.000 A
  | Found multiplier for basic radial grid :   1
  | Found angular grid specification: user-specified.
  | Specified grid contains     5 separate shells.
  | Check grid settings after all constraints further below.
  | Found free-atom valence shell :  2 s   2.000
  | Found free-atom valence shell :  2 p   4.000
  | Found free-ion valence shell :  2 s   1.000
  | Found free-ion valence shell :  2 p   3.000
  | Found hydrogenic basis function :  2 p   1.800
  | Found hydrogenic basis function :  3 d   7.600
  | Found hydrogenic basis function :  3 s   6.400
 | Encountered keyword species, ending the description of species O                   .
  Species O                   : Missing cutoff potential type.
  Defaulting to exp(1/x)/(1-x)^2 type cutoff potential.
  Species O : No 'logarithmic' tag. Using default grid for free atom:
  | Default logarithmic grid data [bohr] : 0.1000E-03 0.1000E+03 0.1012E+01
  Species O : On-site basis accuracy parameter (for Gram-Schmidt orthonormalisation) not specified.
  Using default value basis_acc =  0.1000000E-03.
  Species O                   : Using default innermost maximum threshold i_radial=  2 for radial functions.
  Species O                   : Default cutoff onset for free atom density etc. : 0.35000000E+01 AA.
  Species O                   : Basic radial grid will be enhanced according to radial_multiplier =   1, to contain    36 grid points.
 
  Reading configuration options for species O1                  .
  | Found nuclear charge :   8.1000
  | Found atomic mass :    15.9994000000000      amu
  | Found l_max for Hartree potential  :   6
  | Found cutoff potl. onset [A], width [A], scale factor :    4.00000    2.00000    1.00000
  | Threshold for basis-dependent cutoff potential is   0.100000E-03
  | Found data for basic radial integration grid :    36 points, outermost radius =    7.000 A
  | Found multiplier for basic radial grid :   2
  | Found angular grid specification: user-specified.
  | Specified grid contains     6 separate shells.
  | Check grid settings after all constraints further below.
  | Found free-atom valence shell :  2 s   2.000
  | Found free-atom valence shell :  2 p   4.100
  | Found free-ion valence shell :  2 s   1.000
  | Found free-ion valence shell :  2 p   3.000
  | Found hydrogenic basis function :  2 p   1.800
  | Found hydrogenic basis function :  3 d   7.600
  | Found hydrogenic basis function :  3 s   6.400
  | Found hydrogenic basis function :  4 f  11.600
  | Found hydrogenic basis function :  3 p   6.200
  | Found hydrogenic basis function :  3 d   5.600
  | Found hydrogenic basis function :  5 g  17.600
  | Found hydrogenic basis function :  1 s   0.750
  | Found ionic basis function :  2 p , default cutoff radius.
  | Found hydrogenic basis function :  4 f  10.800
  | Found hydrogenic basis function :  4 d   4.700
  | Found hydrogenic basis function :  2 s   6.800
  | Found hydrogenic basis function :  1 s  12.000
  | Found hydrogenic basis function :  1 s  10.000
  | Found hydrogenic basis function :  1 s   6.000
  | Found hydrogenic basis function :  2 s  10.000
  | Found hydrogenic basis function :  2 p   8.000
  | Found hydrogenic basis function :  2 p   6.000
  | Found hydrogenic basis function :  3 d   8.000
  Species O1                  : Missing cutoff potential type.
  Defaulting to exp(1/x)/(1-x)^2 type cutoff potential.
  Species O1: No 'logarithmic' tag. Using default grid for free atom:
  | Default logarithmic grid data [bohr] : 0.1000E-03 0.1000E+03 0.1012E+01
  | Will include ionic basis functions of  2.1-fold positive O1                   ion.
  Species O1: On-site basis accuracy parameter (for Gram-Schmidt orthonormalisation) not specified.
  Using default value basis_acc =  0.1000000E-03.
  Species O1                  : Using default innermost maximum threshold i_radial=  2 for radial functions.
  Species O1                  : Default cutoff onset for free atom density etc. : 0.40000000E+01 AA.
  Species O1                  : Basic radial grid will be enhanced according to radial_multiplier =   2, to contain    73 grid points.
 
  Finished reading input file 'control.in'.
 
------------------------------------------------------------


------------------------------------------------------------
          Reading geometry description geometry.in.
------------------------------------------------------------
  | The smallest distance between any two atoms is         1.95947270 AA.
  | The first atom of this pair is atom number                      2 .
  | The second atom of this pair is atom number                     3 .
  | Wigner-Seitz cell of the first atom image           0     0     0 .
  | (The Wigner-Seitz cell of the second atom is 0 0 0  by definition.)

  Symmetry information by spglib:
  | Precision set to  0.1E-04
  | Number of Operations  : 2
  | Space group           : 6
  | International         : Pm
  | Schoenflies           : Cs^1
  Input structure read successfully.
  The structure contains       12 atoms,  and a total of        152.000 electrons.

  Input geometry:
  | Unit cell:
  |        6.56612700        0.00000000        0.00000000
  |        0.00000000        2.97288300        0.00000000
  |        0.00000000        0.00000000       22.33245700
  | Atomic structure:
  |       Atom                x [A]            y [A]            z [A]
  |    1: Species O             6.56608760        0.00000000        8.23167665
  |    2: Species O             2.00631950        1.48644150        9.50842322
  |    3: Species Ti            3.28304380        0.00000000        9.50844555
  |    4: Species Ti            6.56610730        1.48644150        9.50844555
  |    5: Species O             4.55977467        1.48644150        9.50846788
  |    6: Species O             0.00000657        0.00000000       10.78521445
  |    7: Species O1            3.28300440        0.00000000       11.51490515
  |    8: Species O             5.28936330        1.48644150       12.79165172
  |    9: Species Ti            6.56609417        0.00000000       12.79167405
  |   10: Species Ti            3.28303067        1.48644150       12.79167405
  |   11: Species O             1.27669147        1.48644150       12.79171872
  |   12: Species O             3.28305037        0.00000000       14.06844295

  Lattice parameters for 3D lattice (in Angstroms) :     6.566127    2.972883   22.332457
  Angle(s) between unit vectors (in degrees)       :    90.000000   90.000000   90.000000


  Quantities derived from the lattice vectors (in Angstrom^-1):
  | Reciprocal lattice vector 1:  0.956909  0.000000  0.000000
  | Reciprocal lattice vector 2:  0.000000  2.113499  0.000000
  | Reciprocal lattice vector 3:  0.000000  0.000000  0.281348
  | Unit cell volume                               :   0.435937E+03  Angstrom^3

  Fractional coordinates:
                         L1                L2                L3
       atom_frac         0.99999400        0.00000000        0.36859700  O
       atom_frac         0.30555600        0.50000000        0.42576700  O
       atom_frac         0.49999700        0.00000000        0.42576800  Ti
       atom_frac         0.99999700        0.50000000        0.42576800  Ti
       atom_frac         0.69443900        0.50000000        0.42576900  O
       atom_frac         0.00000100        0.00000000        0.48293900  O
       atom_frac         0.49999100        0.00000000        0.51561300  O1
       atom_frac         0.80555300        0.50000000        0.57278300  O
       atom_frac         0.99999500        0.00000000        0.57278400  Ti
       atom_frac         0.49999500        0.50000000        0.57278400  Ti
       atom_frac         0.19443600        0.50000000        0.57278600  O
       atom_frac         0.49999800        0.00000000        0.62995500  O

  Initial moments and charges:
  |  Atom   Moment         Charge        Species
  |     1   0.000000E+00   0.000000E+00   O
  |     2   0.000000E+00   0.000000E+00   O
  |     3   0.000000E+00   0.000000E+00   Ti
  |     4   0.000000E+00   0.000000E+00   Ti
  |     5   0.000000E+00   0.000000E+00   O
  |     6   0.000000E+00   0.000000E+00   O
  |     7   0.000000E+00   0.000000E+00   O1
  |     8   0.000000E+00   0.000000E+00   O
  |     9   0.000000E+00   0.000000E+00   Ti
  |    10   0.000000E+00   0.000000E+00   Ti
  |    11   0.000000E+00   0.000000E+00   O
  |    12   0.000000E+00   0.000000E+00   O

  Slab Identifier: This is Z-oriented slab and maximum thickness of the vacuum is: 16.496 Angstrom.
 
  Finished reading input file 'geometry.in'.
 

 
  Consistency checks for stacksize environment parameter are next.
 
  | Maximum stacksize for task 0: unlimited
  | Maximum stacksize for task 1: unlimited
  | Maximum stacksize for task 2: unlimited
  | Maximum stacksize for task 3: unlimited
  | Maximum stacksize for task 4: unlimited
  | Maximum stacksize for task 5: unlimited
  | Maximum stacksize for task 6: unlimited
  | Maximum stacksize for task 7: unlimited
  | Maximum stacksize for task 8: unlimited
  | Maximum stacksize for task 9: unlimited
  | Maximum stacksize for task 10: unlimited
  | Maximum stacksize for task 11: unlimited
  | Maximum stacksize for task 12: unlimited
  | Maximum stacksize for task 13: unlimited
  | Maximum stacksize for task 14: unlimited
  | Maximum stacksize for task 15: unlimited
  | Maximum stacksize for task 16: unlimited
  | Maximum stacksize for task 17: unlimited
  | Maximum stacksize for task 18: unlimited
  | Maximum stacksize for task 19: unlimited
  | Maximum stacksize for task 20: unlimited
  | Maximum stacksize for task 21: unlimited
  | Maximum stacksize for task 22: unlimited
  | Maximum stacksize for task 23: unlimited
  | Maximum stacksize for task 24: unlimited
  | Maximum stacksize for task 25: unlimited
  | Maximum stacksize for task 26: unlimited
  | Maximum stacksize for task 27: unlimited
  | Maximum stacksize for task 28: unlimited
  | Maximum stacksize for task 29: unlimited
  | Maximum stacksize for task 30: unlimited
  | Maximum stacksize for task 31: unlimited
  | Current stacksize for task 0: unlimited
  | Current stacksize for task 1: unlimited
  | Current stacksize for task 2: unlimited
  | Current stacksize for task 3: unlimited
  | Current stacksize for task 4: unlimited
  | Current stacksize for task 5: unlimited
  | Current stacksize for task 6: unlimited
  | Current stacksize for task 7: unlimited
  | Current stacksize for task 8: unlimited
  | Current stacksize for task 9: unlimited
  | Current stacksize for task 10: unlimited
  | Current stacksize for task 11: unlimited
  | Current stacksize for task 12: unlimited
  | Current stacksize for task 13: unlimited
  | Current stacksize for task 14: unlimited
  | Current stacksize for task 15: unlimited
  | Current stacksize for task 16: unlimited
  | Current stacksize for task 17: unlimited
  | Current stacksize for task 18: unlimited
  | Current stacksize for task 19: unlimited
  | Current stacksize for task 20: unlimited
  | Current stacksize for task 21: unlimited
  | Current stacksize for task 22: unlimited
  | Current stacksize for task 23: unlimited
  | Current stacksize for task 24: unlimited
  | Current stacksize for task 25: unlimited
  | Current stacksize for task 26: unlimited
  | Current stacksize for task 27: unlimited
  | Current stacksize for task 28: unlimited
  | Current stacksize for task 29: unlimited
  | Current stacksize for task 30: unlimited
  | Current stacksize for task 31: unlimited
 
  Consistency checks for the contents of control.in are next.
 
  MPI_IN_PLACE appears to work with this MPI implementation.
  | Keeping use_mpi_in_place .true. (see manual).
  Target number of points in a grid batch is not set. Defaulting to  100
  Method for grid partitioning is not set. Defaulting to parallel hash+maxmin partitioning.
  Batch size limit is not set. Defaulting to    200
  By default, will store active basis functions for each batch.
  If in need of memory, prune_basis_once .false. can be used to disable this option.
  communication_type for Hartree potential was not specified.
  Defaulting to calc_hartree .
  Defaulting to Pulay charge density mixer.
  Pulay mixer: Number of relevant iterations not set.
  Defaulting to    8 iterations.
  Pulay mixer: Number of initial linear mixing iterations not set.
  Defaulting to    0 iterations.
  Work space size for distributed Hartree potential not set.
  Defaulting to   0.200000E+03 MB.
  Mixing parameter for charge density mixing has not been set.
  Using default: charge_mix_param =     0.0500.
  The mixing parameter will be adjusted in iteration number     2 of each s.c.f. cycle (i.e., each geometry step).
  Mixing parameter for spin density mixing has not been set.
  Using charge_mix_param as default:     0.0500.
  Algorithm-dependent basis array size parameters:
  | n_max_pulay                         :        8
  Maximum number of self-consistency iterations not provided.
  Presetting  1000 iterations.
  Presetting      1001 iterations before the initial mixing cycle
  is restarted anyway using the sc_init_iter criterion / keyword.
  Presetting a factor      1.000 between actual scf density residual
  and density convergence criterion sc_accuracy_rho below which sc_init_iter
  takes no effect.
 * No s.c.f. convergence criteria (sc_accuracy_*) were provided in control.in.
 * The run will proceed with a reasonable default guess, but please check whether.
 * the s.c.f. cycles seem to take too much or too little time.
  Calculation of forces was not defined in control.in. No forces will be calculated.
  Geometry relaxation not requested: no relaxation will be performed.
 * Notice: The s.c.f. convergence criterion sc_accuracy_rho was not provided.
 * We used to stop in this case, and ask the user to provide reasonable
 * scf convergence criteria. However, this led some users to employ criteria
 * that led to extremely long run times, e.g., for simple relaxation.
 * We now preset a default value for sc_accuracy_rho if it is not set.
 * You may still wish to check if this setting is too tight or too loose for your needs.
 * Based on n_atoms and forces and force-correction status, FHI-aims chose sc_accuracy_rho =  0.141421E-05 .
  No accuracy limit for integral partition fn. given. Defaulting to  0.1000E-14.
  No threshold value for u(r) in integrations given. Defaulting to  0.1000E-05.
  No occupation type (smearing scheme) given. Defaulting to Gaussian broadening, width =  0.1000E-01 eV.
  The width will be adjusted in iteration number     2 of each s.c.f. cycle (i.e., each geometry step).
  No accuracy for occupation numbers given. Defaulting to  0.1000E-12.
  No threshold value for occupation numbers given. Defaulting to  0.0000E+00.
  No accuracy for fermi level given. Defaulting to  0.1000E-19.
  Maximum # of iterations to find E_F not set. Defaulting to  200.
  Will not use alltoall communication since running on < 1024 CPUs.
  Threshold for basis singularities not set.
  Default threshold for basis singularities:  0.1000E-04
  partition_type (choice of integration weights) for integrals was not specified.
  | Using a version of the partition function of Stratmann and coworkers ('stratmann_sparse').
  | At each grid point, the set of atoms used to build the partition table is smoothly restricted to
  | only those atoms whose free-atom density would be non-zero at that grid point.
  Partitioning for Hartree potential was not defined. Using partition_type for integrals.
  | Adjusted default value of keyword multip_moments_threshold to:       0.10000000E-11
  | This value may affect high angular momentum components of the Hartree potential in periodic systems.
  Angular momentum expansion for Kerker preconditioner not set explicitly.
  | Using default value of   0
  No explicit requirement for turning off preconditioner.
  | By default, it will be turned off when the charge convergence reaches
  | sc_accuracy_rho  =   0.141421E-05
  No special mixing parameter while Kerker preconditioner is on.
  Using default: charge_mix_param =     0.0500.
  No q(lm)/r^(l+1) cutoff set for long-range Hartree potential.
  | Using default value of  0.100000E-09 .
  | Verify using the multipole_threshold keyword.
  Defaulting to new monopole extrapolation.
  Density update method: automatic selection selected.
  Using density matrix based charge density update.
  Using density matrix based charge density update.
  Using packed matrix style: index .
  Defaulting to use time-reversal symmetry for k-point grid.
  Charge integration errors on the 3D integration grid will be compensated
  by explicit normalization and distribution of residual charges.
  Use the "compensate_multipole_errors" flag to change this behaviour.
  Set 'collect_eigenvectors' to be '.true.' for all serial calculations. This is mandatory.
  Set 'collect_eigenvectors' to be '.true.' for KS_method lapack_fast and serial.
  Found potential conflicts with setting 'use_local_index' for this calculation. Will not set it.
 
  Consistency checks for the contents of geometry.in are next.
 

  Range separation radius for Ewald summation (hartree_convergence_parameter):      4.81466675 bohr.
 * Warning: Initial charge and total charge of the system are inconsistent.
 * Selected charge in control.in:     0.1000* Sum of initial charges in geometry.in:     0.0000
  Number of empty states per atom not set in control.in - providing a guess from actual geometry.
  | Total number of empty states used during s.c.f. cycle:       46
  If you use a very high smearing, use empty_states (per atom!) in control.in to increase this value.

  Structure-dependent array size parameters: 
  | Number of distinct atom types in initial rho :        3
  | Maximum number of distinct radial functions  :       39
  | Maximum number of basis functions            :      292
  | Number of Kohn-Sham states (occupied + empty):      122
------------------------------------------------------------
  After read_input_data [GB]:   1043.91

  Performing system and environment tests:
  *** Environment variable OMP_NUM_THREADS is not set
  *** For performance reasons you might want to set it to 1
  | Checking for ScaLAPACK...
  | Testing pdtran()...
  | All pdtran() tests passed.
  After prepare_system [GB]:   1043.75

------------------------------------------------------------
          Preparing all fixed parts of the calculation.
------------------------------------------------------------
  Determining machine precision:
    2.225073858507201E-308
  Setting up grids for atomic and cluster calculations.

  Creating wave function, potential, and density for free atoms.
  Runtime choices for atomic solver:
  | atomic solver xc        : PBE
  | compute density gradient: 1
  | compute kinetic density : F

  Species: Ti

  List of occupied orbitals and eigenvalues:
    n    l              occ      energy [Ha]    energy [eV]
    1    0           2.0000      -179.959082     -4896.9358
    2    0           2.0000       -19.727662      -536.8170
    3    0           2.0000        -2.283029       -62.1244
    4    0           2.0000        -0.148384        -4.0377
    2    1           6.0000       -16.317278      -444.0157
    3    1           6.0000        -1.409348       -38.3503
    3    2           2.0000        -0.139340        -3.7916


  Species: O

  List of occupied orbitals and eigenvalues:
    n    l              occ      energy [Ha]    energy [eV]
    1    0           2.0000       -18.926989      -515.0296
    2    0           2.0000        -0.880247       -23.9527
    2    1           4.0000        -0.331514        -9.0210


  Species: O1

  List of occupied orbitals and eigenvalues:
    n    l              occ      energy [Ha]    energy [eV]
    1    0           2.0000       -19.443516      -529.0850
    2    0           2.0000        -0.901438       -24.5294
    2    1           4.1000        -0.339232        -9.2310

  Spin-polarized or charged system:
  Charge density initialized according to selected moments and charges.

  Creating spin-polarized density from free atoms.

  Species: O
  Charge:   0.000000
  Moment:   0.000000

  List of occupied orbitals and eigenvalues:
    n    l      energy [Ha]    energy [eV]    occupation
  Spin-up
    1    0       -18.926989      -515.0296     1.00000000
    2    0        -0.880247       -23.9527     1.00000000
    2    1        -0.331514        -9.0210     2.00000000
  Spin-down
    1    0       -18.926989      -515.0296     1.00000000
    2    0        -0.880247       -23.9527     1.00000000
    2    1        -0.331514        -9.0210     2.00000000


  Species: Ti
  Charge:   0.000000
  Moment:   0.000000

  List of occupied orbitals and eigenvalues:
    n    l      energy [Ha]    energy [eV]    occupation
  Spin-up
    1    0      -179.959082     -4896.9358     1.00000000
    2    0       -19.727662      -536.8170     1.00000000
    3    0        -2.283029       -62.1244     1.00000000
    4    0        -0.148384        -4.0377     1.00000000
    2    1       -16.317278      -444.0157     3.00000000
    3    1        -1.409348       -38.3503     3.00000000
    3    2        -0.139340        -3.7916     1.00000000
  Spin-down
    1    0      -179.959082     -4896.9358     1.00000000
    2    0       -19.727662      -536.8170     1.00000000
    3    0        -2.283029       -62.1244     1.00000000
    4    0        -0.148384        -4.0377     1.00000000
    2    1       -16.317278      -444.0157     3.00000000
    3    1        -1.409348       -38.3503     3.00000000
    3    2        -0.139340        -3.7916     1.00000000


  Species: O1
  Charge:   0.000000
  Moment:   0.000000

  List of occupied orbitals and eigenvalues:
    n    l      energy [Ha]    energy [eV]    occupation
  Spin-up
    1    0       -19.443516      -529.0850     1.00000000
    2    0        -0.901438       -24.5294     1.00000000
    2    1        -0.339232        -9.2310     2.05000000
  Spin-down
    1    0       -19.443516      -529.0850     1.00000000
    2    0        -0.901438       -24.5294     1.00000000
    2    1        -0.339232        -9.2310     2.05000000


  Adding cutoff potential to free-atom effective potential.
  Creating fixed part of basis set: Ionic, confined, hydrogenic.
 
  Ti                   ion:

  List of free ionic orbitals and eigenvalues:
    n    l      energy [Ha]    energy [eV]
    1    0      -180.819616     -4920.3521
    2    0       -20.608761      -560.7929
    3    0        -3.115729       -84.7833
    4    0        -0.697188       -18.9715
    2    1       -17.196209      -467.9327
    3    1        -2.231296       -60.7167
    3    2        -0.911363       -24.7995


  List of ionic basis orbitals and eigenvalues:
    n    l      energy [Ha]    energy [eV]    outer radius [A]
    4    1        -0.517739       -14.0884       4.592117
    4    0        -0.696824       -18.9615       4.536321

 
  Ti                   hydrogenic:
 
  List of hydrogenic basis orbitals: 
    n    l      effective z      eigenvalue [eV]  inner max. [A]     outer max. [A]     outer radius [A]   
    4    3         8.000000       -54.4222           1.059019           1.059019           4.267343
    3    2         2.700000       -10.7798           1.726925           1.726925           4.592117
 
 
  O                    hydrogenic:
 
  List of hydrogenic basis orbitals: 
    n    l      effective z      eigenvalue [eV]  inner max. [A]     outer max. [A]     outer radius [A]   
    2    1         1.800000       -10.9749           1.164242           1.164242           4.578029
    3    2         7.600000       -87.3180           0.624125           0.624125           3.251020
    3    0         6.400000       -61.9207           0.061167           1.081902           4.001998
 
 
  O1                   ion:

  List of free ionic orbitals and eigenvalues:
    n    l      energy [Ha]    energy [eV]
    1    0       -21.112423      -574.4983
    2    0        -2.242749       -61.0283
    2    1        -1.673061       -45.5263


  List of ionic basis orbitals and eigenvalues:
    n    l      energy [Ha]    energy [eV]    outer radius [A]
    2    1        -1.673055       -45.5262       3.497755

 
  O1                   hydrogenic:
 
  List of hydrogenic basis orbitals: 
    n    l      effective z      eigenvalue [eV]  inner max. [A]     outer max. [A]     outer radius [A]   
    2    1         1.800000       -11.0118           1.178329           1.178329           5.431529
    3    2         7.600000       -87.3182           0.624002           0.624002           3.540777
    3    0         6.400000       -61.9209           0.061155           1.081688           4.305727
    4    3        11.600000      -114.4238           0.731486           0.731486           3.584329
    3    1         6.200000       -58.1113           0.255630           1.030066           4.305727
    3    2         5.600000       -47.4081           0.847066           0.847066           4.412300
    5    4        17.600000      -168.5799           0.749592           0.749592           3.371799
    1    0         0.750000        -7.6499           0.705145           0.705145           5.431529
    4    3        10.800000       -99.1854           0.787158           0.787158           3.763959
    4    2         4.700000       -18.6841           0.758812           2.365340           5.498337
    2    0         6.800000      -157.2818           0.059678           0.406783           2.739079
    1    0        12.000000     -1959.2197           0.043962           0.043962           0.816563
    1    0        10.000000     -1360.5692           0.052810           0.052810           0.980908
    1    0         6.000000      -489.8049           0.088248           0.088248           1.560915
    2    0        10.000000      -340.1423           0.040357           0.278468           2.093154
    2    1         8.000000      -217.6911           0.265179           0.265179           2.365340
    2    1         6.000000      -122.4512           0.351279           0.351279           2.841399
    3    2         8.000000       -96.7515           0.594223           0.594223           3.455255
 
  Creating atomic-like basis functions for current effective potential.

  Species Ti                  :

  List of atomic basis orbitals and eigenvalues:
    n    l      energy [Ha]    energy [eV]    outer radius [A]
    1    0      -179.959082     -4896.9358       0.490254
    2    0       -19.727662      -536.8170       1.491292
    3    0        -2.283029       -62.1244       4.014314
    4    0        -0.148384        -4.0377       4.592117
    2    1       -16.317278      -444.0157       1.585290
    3    1        -1.409348       -38.3503       4.267343
    3    2        -0.139340        -3.7916       4.536321


  Species O                   :

  List of atomic basis orbitals and eigenvalues:
    n    l      energy [Ha]    energy [eV]    outer radius [A]
    1    0       -18.926989      -515.0296       1.415765
    2    0        -0.880247       -23.9527       4.413171
    2    1        -0.331514        -9.0210       4.522403


  Species O1                  :

  List of atomic basis orbitals and eigenvalues:
    n    l      energy [Ha]    energy [eV]    outer radius [A]
    1    0       -19.443516      -529.0850       1.398286
    2    0        -0.901438       -24.5294       5.047388
    2    1        -0.339232        -9.2310       5.300339

  Assembling full basis from fixed parts.
  | Species Ti :   atomic orbital   1 s accepted.
  | Species Ti :   atomic orbital   2 s accepted.
  | Species Ti :   atomic orbital   3 s accepted.
  | Species Ti :    ionic orbital   4 s accepted.
  | Species Ti :   atomic orbital   4 s accepted.
  | Species Ti :   atomic orbital   2 p accepted.
  | Species Ti :   atomic orbital   3 p accepted.
  | Species Ti :    ionic orbital   4 p accepted.
  | Species Ti :   atomic orbital   3 d accepted.
  | Species Ti :    hydro orbital   3 d accepted.
  | Species Ti :    hydro orbital   4 f accepted.
  | Species O :   atomic orbital   1 s accepted.
  | Species O :    hydro orbital   3 s accepted.
  | Species O :   atomic orbital   2 s accepted.
  | Species O :   atomic orbital   2 p accepted.
  | Species O :    hydro orbital   2 p accepted.
  | Species O :    hydro orbital   3 d accepted.
  | Species O1 :    hydro orbital   1 s accepted.
  | Species O1 :    hydro orbital   1 s accepted.
  | Species O1 :   atomic orbital   1 s accepted.
  | Species O1 :    hydro orbital   1 s accepted.
  | Species O1 :    hydro orbital   2 s accepted.
  | Species O1 :    hydro orbital   2 s accepted.
  | Species O1 :    hydro orbital   3 s accepted.
  | Species O1 :   atomic orbital   2 s accepted.
  | Species O1 :    hydro orbital   1 s accepted.
  | Species O1 :    hydro orbital   2 p accepted.
  | Species O1 :    hydro orbital   2 p accepted.
  | Species O1 :    ionic orbital   2 p accepted.
  | Species O1 :    hydro orbital   3 p accepted.
  | Species O1 :   atomic orbital   2 p accepted.
  | Species O1 :    hydro orbital   2 p accepted.
  | Species O1 :    hydro orbital   3 d accepted.
  | Species O1 :    hydro orbital   3 d accepted.
  | Species O1 :    hydro orbital   3 d accepted.
  | Species O1 :    hydro orbital   4 d accepted.
  | Species O1 :    hydro orbital   4 f accepted.
  | Species O1 :    hydro orbital   4 f accepted.
  | Species O1 :    hydro orbital   5 g accepted.
 
  Basis size parameters after reduction:
  | Total number of radial functions:       39
  | Total number of basis functions :      292
 
  Per-task memory consumption for arrays in subroutine allocate_ext:
  |          10.366508MB.
  Testing on-site integration grid accuracy.
  |  Species  Function  <phi|h_atom|phi> (log., in eV)  <phi|h_atom|phi> (rad., in eV)
           1        1              -4896.9357674450              -4896.9322838106
           1        2               -536.8170048508               -536.8169722776
           1        3                -62.1243896260                -62.1243889401
           1        4                 -3.2653235630                 -3.2692838824
           1        5                  6.7987747276                  6.5460721871 ***
           1        6               -444.0157161949               -444.0157165643
           1        7                -38.3503235548                -38.3503234985
           1        8                  0.2923930877                  0.2745948114
           1        9                 -3.7933400649                 -3.7959244171
           1       10                  6.3288803616                  6.2510614935 ***
           1       11                 27.8451455747                 27.8452636415
           2       12               -515.0295626295               -515.0294562869
           2       13                 15.1698434419                 15.1699322205
           2       14                -21.6038822678                -21.6039118108
           2       15                 -9.0211123393                 -9.0212703513
           2       16                  8.3047696391                  8.2854840999
           2       17                 45.8428042125                 45.8427461223
           3       18               -297.9424497070               -297.9307546811
           3       19               1645.1607047806               1645.2197751407 ***
           3       20               2119.2738154539               2119.3436317389 ***
           3       21               3026.0387037457               3025.6851308905 ***
           3       22               3253.4141389026               3250.3969556677 ***
           3       23               2486.1613909613               2479.9209551817 ***
           3       24                928.4755510298                925.0649414714 ***
           3       25               3217.2880260672               3197.7996066481 ***
           3       26                116.2372337726                115.1951246379 ***
           3       27                 14.1916443797                 14.1916441416
           3       28                100.8973238320                100.8973235910
           3       29                126.7268970011                126.7268978746
           3       30                265.5063129510                265.5063171135
           3       31                164.5864954693                164.5862098674
           3       32                152.6490461408                152.6521897582
           3       33                 50.8372160038                 50.8372160306
           3       34                 88.4076944870                 88.4076906764
           3       35                 82.8810909769                 82.8811630317
           3       36                 36.7178675709                 36.7178927368
           3       37                 85.5654659815                 85.5654660136
           3       38                115.1530221283                115.1530245794
           3       39                142.2669496021                142.2669496201
 * Note: Onsite integrals marked "***" above are less accurate than
 * onsite_accuracy_threshold =    0.03000 eV. Usually, this is harmless.
 * When in doubt, tighten the "radial" and/or "radial_multiplier" flags to check.

  Preparing densities etc. for the partition functions (integrals / Hartree potential).

  Preparations completed.
  max(cpu_time)          :      0.501 s.
  Wall clock time (cpu1) :      0.499 s.
------------------------------------------------------------
  After prepare_scf [GB]:   1041.71

  Initializing index lists of integration centers etc. from given atomic structure:
  Mapping all atomic coordinates to central unit cell.

  Initializing the k-points
  Using symmetry for reducing the k-points
  | k-points reduced from:       64 to       36
  | Number of k-points                             :        36
  The eigenvectors in the calculations are COMPLEX.
  | K-points in task   0:         1
  | K-points in task   1:         2
  | K-points in task   2:         2
  | K-points in task   3:         2
  | K-points in task   4:         2
  | K-points in task   5:         1
  | K-points in task   6:         1
  | K-points in task   7:         1
  | K-points in task   8:         1
  | K-points in task   9:         1
  | K-points in task  10:         1
  | K-points in task  11:         1
  | K-points in task  12:         1
  | K-points in task  13:         1
  | K-points in task  14:         1
  | K-points in task  15:         1
  | K-points in task  16:         1
  | K-points in task  17:         1
  | K-points in task  18:         1
  | K-points in task  19:         1
  | K-points in task  20:         1
  | K-points in task  21:         1
  | K-points in task  22:         1
  | K-points in task  23:         1
  | K-points in task  24:         1
  | K-points in task  25:         1
  | K-points in task  26:         1
  | K-points in task  27:         1
  | K-points in task  28:         1
  | K-points in task  29:         1
  | K-points in task  30:         1
  | K-points in task  31:         1
  | Number of basis functions in the Hamiltonian integrals :      4566
  | Number of basis functions in a single unit cell        :       292
  | Number of centers in hartree potential         :      1370
  | Number of centers in hartree multipole         :       659
  | Number of centers in electron density summation:       531
  | Number of centers in basis integrals           :       556
  | Number of centers in integrals                 :       232
  | Number of centers in hamiltonian               :       643
  | Consuming         63 KiB for k_phase.
  | Number of super-cells (origin) [n_cells]                     :         675
  | Number of super-cells (after PM_index) [n_cells]             :         112
  | Number of super-cells in hamiltonian [n_cells_in_hamiltonian]:         112
  | Size of matrix packed + index [n_hamiltonian_matrix_size] :      435363
  After initialize_bc_dependent_lists [GB]:   1041.71

------------------------------------------------------------
          Begin self-consistency loop: Initialization.

          Date     :  20241013, Time     :  110321.293
------------------------------------------------------------
  Available memory per node after initialize_hartree_non_periodic_ewald [GB]:   1041.71
  | Estimated reciprocal-space cutoff momentum G_max:         1.98229608 bohr^-1 .
  | Reciprocal lattice points for long-range Hartree potential:     386
  Available memory per node after initialize_recip_hartree_potential [GB]:   1041.71
  Available memory per node after initialize_scalapack [GB]:   1041.71
  Available memory per node after aims_elsi_init_scf [GB]:   1041.71
  Available memory per node after initialize_fixed_grids [GB]:   1041.71
  Partitioning the integration grid into batches with parallel hashing+maxmin method.
  | Number of batches:     1002
  | Maximal batch size:     182
  | Minimal batch size:       3
  | Average batch size:      90.170
  | Standard deviation of batch sizes:      30.504

  Integration load balanced across    32 MPI tasks.
  Work distribution over tasks is as follows:
  Task     0 has       2853 integration points.
  Task     1 has       2848 integration points.
  Task     2 has       2786 integration points.
  Task     3 has       2793 integration points.
  Task     4 has       2862 integration points.
  Task     5 has       2796 integration points.
  Task     6 has       2795 integration points.
  Task     7 has       2842 integration points.
  Task     8 has       2850 integration points.
  Task     9 has       2799 integration points.
  Task    10 has       2841 integration points.
  Task    11 has       2844 integration points.
  Task    12 has       2796 integration points.
  Task    13 has       2799 integration points.
  Task    14 has       2792 integration points.
  Task    15 has       2847 integration points.
  Task    16 has       2844 integration points.
  Task    17 has       2850 integration points.
  Task    18 has       2794 integration points.
  Task    19 has       2807 integration points.
  Task    20 has       2850 integration points.
  Task    21 has       2854 integration points.
  Task    22 has       2797 integration points.
  Task    23 has       2808 integration points.
  Task    24 has       2847 integration points.
  Task    25 has       2817 integration points.
  Task    26 has       2855 integration points.
  Task    27 has       2802 integration points.
  Task    28 has       2855 integration points.
  Task    29 has       2799 integration points.
  Task    30 has       2798 integration points.
  Task    31 has       2830 integration points.
  Available memory per node after partition_grid [GB]:   1041.71
  Initializing partition tables, free-atom densities, potentials, etc. across the integration grid (initialize_grid_storage).
  | initialize_grid_storage: Actual outermost partition radius vs. multipole_radius_free
  | (-- VB: in principle, multipole_radius_free should be larger, hence this output)
  | Species        1: Confinement radius =              4.999999999999999 AA, multipole_radius_free =              5.002391649902235 AA.
  | Species        1: outer_partition_radius set to              5.002391649902235 AA .
  | Species        2: Confinement radius =              4.999999999999999 AA, multipole_radius_free =              5.048384829883283 AA.
  | Species        2: outer_partition_radius set to              5.048384829883283 AA .
  | Species        3: Confinement radius =              6.000000000000000 AA, multipole_radius_free =              6.063247693467886 AA.
  | Species        3: outer_partition_radius set to              6.063247693467886 AA .
  | The sparse table of interatomic distances needs       1603.53 kbyte instead of      2473.09 kbyte of memory.
  | Net number of integration points:    90350
  | of which are non-zero points    :    73803
  | Numerical average free-atom electrostatic potential    :     -5.20394508 eV
  Available memory per node after initialize_grid_storage_p1 [GB]:   1041.71
  Renormalizing the initial density to the exact electron count on the 3D integration grid.
  | Initial density: Formal number of electrons (from input files) :     152.1000000000
  | Integrated number of electrons on 3D grid     :     152.0997712981
  | Charge integration error                      :      -0.0002287019
  | Normalization factor for density and gradient :       1.0000015036
  Renormalizing the free-atom superposition density to the exact electron count on the 3D integration grid.
  | Formal number of electrons (from input files) :     152.0000000000
  | Integrated number of electrons on 3D grid     :     152.0997712981
  | Charge integration error                      :      -0.0002287019
  | Normalization factor for density and gradient :       1.0000015036
  Obtaining max. number of non-zero basis functions in each batch (get_n_compute_maxes).
  | Maximal number of non-zero basis functions:      901 in task     0
  | Maximal number of non-zero basis functions:      919 in task     1
  | Maximal number of non-zero basis functions:      842 in task     2
  | Maximal number of non-zero basis functions:      914 in task     3
  | Maximal number of non-zero basis functions:      864 in task     4
  | Maximal number of non-zero basis functions:      861 in task     5
  | Maximal number of non-zero basis functions:      837 in task     6
  | Maximal number of non-zero basis functions:      864 in task     7
  | Maximal number of non-zero basis functions:      843 in task     8
  | Maximal number of non-zero basis functions:      930 in task     9
  | Maximal number of non-zero basis functions:      937 in task    10
  | Maximal number of non-zero basis functions:      920 in task    11
  | Maximal number of non-zero basis functions:      865 in task    12
  | Maximal number of non-zero basis functions:      947 in task    13
  | Maximal number of non-zero basis functions:      926 in task    14
  | Maximal number of non-zero basis functions:      865 in task    15
  | Maximal number of non-zero basis functions:      855 in task    16
  | Maximal number of non-zero basis functions:      845 in task    17
  | Maximal number of non-zero basis functions:      855 in task    18
  | Maximal number of non-zero basis functions:      895 in task    19
  | Maximal number of non-zero basis functions:      862 in task    20
  | Maximal number of non-zero basis functions:      837 in task    21
  | Maximal number of non-zero basis functions:      842 in task    22
  | Maximal number of non-zero basis functions:      859 in task    23
  | Maximal number of non-zero basis functions:      852 in task    24
  | Maximal number of non-zero basis functions:      849 in task    25
  | Maximal number of non-zero basis functions:      848 in task    26
  | Maximal number of non-zero basis functions:      899 in task    27
  | Maximal number of non-zero basis functions:      956 in task    28
  | Maximal number of non-zero basis functions:      945 in task    29
  | Maximal number of non-zero basis functions:      879 in task    30
  | Maximal number of non-zero basis functions:      851 in task    31
  Available memory per node after get_n_compute_maxes_p1 [GB]:   1041.71
  Initialize hartree_potential_storage
  Max. number of atoms included in rho_multipole:           12

  Evaluating partitioned Hartree potential by multipole expansion.
  | Original multipole sum: apparent total charge =   0.161690E-14
  | Sum of charges compensated after spline to logarithmic grids =   0.000000E+00
  | Analytical far-field extrapolation by fixed multipoles:
  | Hartree multipole sum: apparent total charge =   0.000000E+00
  Summing up the Hartree potential.
  | Ewald reciprocal-space coefficients, myid =     0 : cpu      0.000 s, wall      0.000 s.
  | Ewald reciprocal-space coefficients, myid =     1 : cpu      0.000 s, wall      0.000 s.
  | Ewald reciprocal-space coefficients, myid =     2 : cpu      0.000 s, wall      0.000 s.
  | Ewald reciprocal-space coefficients, myid =     3 : cpu      0.000 s, wall      0.000 s.
  | Ewald reciprocal-space coefficients, myid =     4 : cpu      0.000 s, wall      0.000 s.
  | Ewald reciprocal-space coefficients, myid =     5 : cpu      0.000 s, wall      0.000 s.
  | Ewald reciprocal-space coefficients, myid =     6 : cpu      0.000 s, wall      0.000 s.
  | Ewald reciprocal-space coefficients, myid =     7 : cpu      0.000 s, wall      0.000 s.
  | Ewald reciprocal-space coefficients, myid =     8 : cpu      0.000 s, wall      0.000 s.
  | Ewald reciprocal-space coefficients, myid =     9 : cpu      0.000 s, wall      0.000 s.
  | Ewald reciprocal-space coefficients, myid =    10 : cpu      0.000 s, wall      0.000 s.
  | Ewald reciprocal-space coefficients, myid =    11 : cpu      0.000 s, wall      0.000 s.
  | Ewald reciprocal-space coefficients, myid =    12 : cpu      0.000 s, wall      0.000 s.
  | Ewald reciprocal-space coefficients, myid =    13 : cpu      0.000 s, wall      0.000 s.
  | Ewald reciprocal-space coefficients, myid =    14 : cpu      0.000 s, wall      0.000 s.
  | Ewald reciprocal-space coefficients, myid =    15 : cpu      0.000 s, wall      0.000 s.
  | Ewald reciprocal-space coefficients, myid =    16 : cpu      0.000 s, wall      0.000 s.
  | Ewald reciprocal-space coefficients, myid =    17 : cpu      0.000 s, wall      0.000 s.
  | Ewald reciprocal-space coefficients, myid =    18 : cpu      0.000 s, wall      0.000 s.
  | Ewald reciprocal-space coefficients, myid =    19 : cpu      0.000 s, wall      0.000 s.
  | Ewald reciprocal-space coefficients, myid =    20 : cpu      0.000 s, wall      0.000 s.
  | Ewald reciprocal-space coefficients, myid =    21 : cpu      0.000 s, wall      0.000 s.
  | Ewald reciprocal-space coefficients, myid =    22 : cpu      0.000 s, wall      0.000 s.
  | Ewald reciprocal-space coefficients, myid =    23 : cpu      0.000 s, wall      0.000 s.
  | Ewald reciprocal-space coefficients, myid =    24 : cpu      0.000 s, wall      0.000 s.
  | Ewald reciprocal-space coefficients, myid =    25 : cpu      0.000 s, wall      0.000 s.
  | Ewald reciprocal-space coefficients, myid =    26 : cpu      0.000 s, wall      0.000 s.
  | Ewald reciprocal-space coefficients, myid =    27 : cpu      0.000 s, wall      0.000 s.
  | Ewald reciprocal-space coefficients, myid =    28 : cpu      0.000 s, wall      0.000 s.
  | Ewald reciprocal-space coefficients, myid =    29 : cpu      0.000 s, wall      0.000 s.
  | Ewald reciprocal-space coefficients, myid =    30 : cpu      0.000 s, wall      0.000 s.
  | Ewald reciprocal-space coefficients, myid =    31 : cpu      0.000 s, wall      0.000 s.
  Time summed over all CPUs for potential: real work        0.025 s, elapsed        0.026 s
  | RMS charge density error from multipole expansion :   0.287484E-13
  | Average real-space part of the electrostatic potential :      0.00000000 eV

  Allocating        1.087 MB for KS_eigenvector_complex
  Available memory per node after allocate_matrices [GB]:   1041.71
  Available memory per node after init_comm_sparse_local_matrix_scalapack [GB]:   1041.71
  Integrating Hamiltonian matrix: batch-based integration.
  Time summed over all CPUs for integration: real work       20.534 s, elapsed       22.553 s
  Available memory per node after integrate hamiltonian matrix [GB]:   1041.33
  Integrating overlap matrix.
  Time summed over all CPUs for integration: real work        3.480 s, elapsed        3.829 s
  Available memory per node after integrate ovlp matrix [GB]:   1041.10
  Available memory per node after ASI_callbacks invoke [GB]:   1041.10
  Available memory per node after save_overlap_scalapack [GB]:   1041.10

  Updating Kohn-Sham eigenvalues and eigenvectors using ELSI and the (modified) LAPACK eigensolver.
  Singularity check in k-point 32, task 0 (analysis for other k-points/tasks may follow below):
  Overlap matrix is not singular
  | Lowest and highest eigenvalues :  0.1225E-03,  0.9248E+01
  Finished singularity check of overlap matrix
  | Time :     0.016 s
  Starting LAPACK eigensolver
  Finished Cholesky decomposition
  | Time :     0.003 s
  Finished transformation to standard eigenproblem
  | Time :     0.005 s
  Finished solving standard eigenproblem
  | Time :     0.017 s
  Finished back-transformation of eigenvectors
  | Time :     0.002 s

  Obtaining occupation numbers and electronic chemical potential using ELSI.
  | Note that, for insulating systems, the printed 'chemical potential' value is not uniquely defined.
  | It can be anywhere in the energy gap, as long as it correctly separates occupied and unoccupied states.
  | In systems with a gap, the physically relevant chemical potential is the VBM or HOMO.

  | Chemical potential (Fermi level):    -5.38294740 eV
  Available memory per node after advance_KS_solution [GB]:   1041.10
  Writing Kohn-Sham eigenvalues.

  Spin-up eigenvalues:
  K-point:       1 at    0.000000    0.000000    0.000000 (in units of recip. lattice)

  State    Occupation    Eigenvalue [Ha]    Eigenvalue [eV]
      1       1.00000        -179.962360        -4897.02497
      2       1.00000        -179.962290        -4897.02306
      3       1.00000        -179.961227        -4896.99415
      4       1.00000        -179.961201        -4896.99345
      5       1.00000         -19.737904         -537.09571
      6       1.00000         -19.737823         -537.09350
      7       1.00000         -19.736672         -537.06217
      8       1.00000         -19.736642         -537.06135
      9       1.00000         -19.551123         -532.01311
     10       1.00000         -19.034652         -517.95924
     11       1.00000         -19.034542         -517.95623
     12       1.00000         -19.034542         -517.95623
     13       1.00000         -19.034541         -517.95622
     14       1.00000         -19.034541         -517.95622
     15       1.00000         -19.001846         -517.06653
     16       1.00000         -19.001836         -517.06625
     17       1.00000         -16.328080         -444.30966
     18       1.00000         -16.327997         -444.30742
     19       1.00000         -16.327760         -444.30094
     20       1.00000         -16.327753         -444.30077
     21       1.00000         -16.327685         -444.29891
     22       1.00000         -16.327673         -444.29858
     23       1.00000         -16.326912         -444.27787
     24       1.00000         -16.326884         -444.27713
     25       1.00000         -16.326603         -444.26947
     26       1.00000         -16.326575         -444.26872
     27       1.00000         -16.326438         -444.26498
     28       1.00000         -16.326405         -444.26407
     29       1.00000          -2.309008          -62.83130
     30       1.00000          -2.308807          -62.82584
     31       1.00000          -2.306177          -62.75426
     32       1.00000          -2.306094          -62.75200
     33       1.00000          -1.448865          -39.42562
     34       1.00000          -1.448535          -39.41665
     35       1.00000          -1.446393          -39.35836
     36       1.00000          -1.446121          -39.35094
     37       1.00000          -1.441116          -39.21476
     38       1.00000          -1.440790          -39.20588
     39       1.00000          -1.439090          -39.15963
     40       1.00000          -1.438927          -39.15520
     41       1.00000          -1.438808          -39.15196
     42       1.00000          -1.438604          -39.14642
     43       1.00000          -1.433036          -38.99490
     44       1.00000          -1.432856          -38.98999
     45       1.00000          -1.062400          -28.90939
     46       1.00000          -1.049544          -28.55954
     47       1.00000          -1.044949          -28.43452
     48       1.00000          -1.030045          -28.02895
     49       1.00000          -1.006789          -27.39613
     50       1.00000          -1.005274          -27.35490
     51       1.00000          -0.984009          -26.77623
     52       1.00000          -0.981764          -26.71516
     53       1.00000          -0.574943          -15.64499
     54       1.00000          -0.572663          -15.58296
     55       1.00000          -0.547629          -14.90175
     56       1.00000          -0.542345          -14.75797
     57       1.00000          -0.531176          -14.45405
     58       1.00000          -0.515029          -14.01465
     59       1.00000          -0.513994          -13.98649
     60       1.00000          -0.508952          -13.84928
     61       1.00000          -0.503073          -13.68930
     62       1.00000          -0.490590          -13.34962
     63       1.00000          -0.479691          -13.05307
     64       1.00000          -0.477950          -13.00569
     65       1.00000          -0.476096          -12.95524
     66       1.00000          -0.464888          -12.65024
     67       1.00000          -0.460192          -12.52245
     68       1.00000          -0.456948          -12.43418
     69       1.00000          -0.448414          -12.20195
     70       1.00000          -0.436366          -11.87412
     71       1.00000          -0.436075          -11.86621
     72       1.00000          -0.434043          -11.81090
     73       1.00000          -0.433636          -11.79984
     74       1.00000          -0.429547          -11.68857
     75       1.00000          -0.414055          -11.26700
     76       1.00000          -0.411240          -11.19042
     77       0.00000          -0.188088           -5.11813
     78       0.00000          -0.187731           -5.10842
     79       0.00000          -0.177544           -4.83123
     80       0.00000          -0.175139           -4.76578
     81       0.00000          -0.155804           -4.23963
     82       0.00000          -0.155310           -4.22620
     83       0.00000          -0.151955           -4.13491
     84       0.00000          -0.145607           -3.96217
     85       0.00000          -0.145174           -3.95038
     86       0.00000          -0.139197           -3.78773
     87       0.00000          -0.137516           -3.74200
     88       0.00000          -0.125920           -3.42646
     89       0.00000          -0.122723           -3.33947
     90       0.00000          -0.109826           -2.98852
     91       0.00000          -0.080460           -2.18942
     92       0.00000          -0.068200           -1.85580
     93       0.00000          -0.044245           -1.20396
     94       0.00000          -0.042726           -1.16264
     95       0.00000          -0.039872           -1.08496
     96       0.00000          -0.039595           -1.07742
     97       0.00000          -0.031480           -0.85661
     98       0.00000          -0.029227           -0.79529
     99       0.00000           0.019838            0.53982
    100       0.00000           0.051165            1.39228
    101       0.00000           0.075869            2.06451
    102       0.00000           0.095498            2.59863
    103       0.00000           0.096320            2.62101
    104       0.00000           0.111447            3.03263
    105       0.00000           0.165235            4.49627
    106       0.00000           0.181450            4.93751
    107       0.00000           0.226520            6.16393
    108       0.00000           0.241204            6.56350
    109       0.00000           0.262468            7.14211
    110       0.00000           0.303231            8.25134
    111       0.00000           0.312030            8.49077
    112       0.00000           0.322925            8.78724
    113       0.00000           0.371200           10.10085
    114       0.00000           0.372714           10.14208
    115       0.00000           0.388353           10.56763
    116       0.00000           0.402558           10.95417
    117       0.00000           0.404002           10.99344
    118       0.00000           0.421333           11.46504
    119       0.00000           0.455057           12.38273
    120       0.00000           0.470119           12.79258
    121       0.00000           0.493827           13.43770
    122       0.00000           0.495810           13.49168

  Spin-down eigenvalues:
  K-point:       1 at    0.000000    0.000000    0.000000 (in units of recip. lattice)

  State    Occupation    Eigenvalue [Ha]    Eigenvalue [eV]
      1       1.00000        -179.962360        -4897.02497
      2       1.00000        -179.962290        -4897.02306
      3       1.00000        -179.961227        -4896.99415
      4       1.00000        -179.961201        -4896.99345
      5       1.00000         -19.737904         -537.09571
      6       1.00000         -19.737823         -537.09350
      7       1.00000         -19.736672         -537.06217
      8       1.00000         -19.736642         -537.06135
      9       1.00000         -19.551123         -532.01311
     10       1.00000         -19.034652         -517.95924
     11       1.00000         -19.034542         -517.95623
     12       1.00000         -19.034542         -517.95623
     13       1.00000         -19.034541         -517.95622
     14       1.00000         -19.034541         -517.95622
     15       1.00000         -19.001846         -517.06653
     16       1.00000         -19.001836         -517.06625
     17       1.00000         -16.328080         -444.30966
     18       1.00000         -16.327997         -444.30742
     19       1.00000         -16.327760         -444.30094
     20       1.00000         -16.327753         -444.30077
     21       1.00000         -16.327685         -444.29891
     22       1.00000         -16.327673         -444.29858
     23       1.00000         -16.326912         -444.27787
     24       1.00000         -16.326884         -444.27713
     25       1.00000         -16.326603         -444.26947
     26       1.00000         -16.326575         -444.26872
     27       1.00000         -16.326438         -444.26498
     28       1.00000         -16.326405         -444.26407
     29       1.00000          -2.309008          -62.83130
     30       1.00000          -2.308807          -62.82584
     31       1.00000          -2.306177          -62.75426
     32       1.00000          -2.306094          -62.75200
     33       1.00000          -1.448865          -39.42562
     34       1.00000          -1.448535          -39.41665
     35       1.00000          -1.446393          -39.35836
     36       1.00000          -1.446121          -39.35094
     37       1.00000          -1.441116          -39.21476
     38       1.00000          -1.440790          -39.20588
     39       1.00000          -1.439090          -39.15963
     40       1.00000          -1.438927          -39.15520
     41       1.00000          -1.438808          -39.15196
     42       1.00000          -1.438604          -39.14642
     43       1.00000          -1.433036          -38.99490
     44       1.00000          -1.432856          -38.98999
     45       1.00000          -1.062400          -28.90939
     46       1.00000          -1.049544          -28.55954
     47       1.00000          -1.044949          -28.43452
     48       1.00000          -1.030045          -28.02895
     49       1.00000          -1.006789          -27.39613
     50       1.00000          -1.005274          -27.35490
     51       1.00000          -0.984009          -26.77623
     52       1.00000          -0.981764          -26.71516
     53       1.00000          -0.574943          -15.64499
     54       1.00000          -0.572663          -15.58296
     55       1.00000          -0.547629          -14.90175
     56       1.00000          -0.542345          -14.75797
     57       1.00000          -0.531176          -14.45405
     58       1.00000          -0.515029          -14.01465
     59       1.00000          -0.513994          -13.98649
     60       1.00000          -0.508952          -13.84928
     61       1.00000          -0.503073          -13.68930
     62       1.00000          -0.490590          -13.34962
     63       1.00000          -0.479691          -13.05307
     64       1.00000          -0.477950          -13.00569
     65       1.00000          -0.476096          -12.95524
[...]
     19       1.00000         -16.455837         -447.78611
     20       1.00000         -16.453231         -447.71519
     21       1.00000         -16.452779         -447.70288
     22       1.00000         -16.452543         -447.69648
     23       1.00000         -16.411447         -446.57820
     24       1.00000         -16.410227         -446.54501
     25       1.00000         -16.409537         -446.52623
     26       1.00000         -16.407725         -446.47690
     27       1.00000         -16.406283         -446.43768
     28       1.00000         -16.405597         -446.41900
     29       1.00000          -2.418684          -65.81575
     30       1.00000          -2.415370          -65.72557
     31       1.00000          -2.373201          -64.57810
     32       1.00000          -2.369059          -64.46538
     33       1.00000          -1.545952          -42.06750
     34       1.00000          -1.545448          -42.05378
     35       1.00000          -1.542579          -41.97571
     36       1.00000          -1.541937          -41.95824
     37       1.00000          -1.539356          -41.88801
     38       1.00000          -1.536657          -41.81457
     39       1.00000          -1.503317          -40.90733
     40       1.00000          -1.500285          -40.82485
     41       1.00000          -1.499719          -40.80943
     42       1.00000          -1.496008          -40.70845
     43       1.00000          -1.493020          -40.62715
     44       1.00000          -1.488841          -40.51342
     45       1.00000          -0.972544          -26.46427
     46       1.00000          -0.961875          -26.17394
     47       1.00000          -0.947807          -25.79114
     48       1.00000          -0.926036          -25.19873
     49       1.00000          -0.919877          -25.03112
     50       1.00000          -0.917585          -24.96877
     51       1.00000          -0.860139          -23.40557
     52       1.00000          -0.856067          -23.29476
     53       1.00000          -0.516519          -14.05521
     54       1.00000          -0.515342          -14.02317
     55       1.00000          -0.473156          -12.87522
     56       1.00000          -0.466524          -12.69478
     57       1.00000          -0.464641          -12.64351
     58       1.00000          -0.458947          -12.48860
     59       1.00000          -0.457261          -12.44270
     60       1.00000          -0.428482          -11.65959
     61       1.00000          -0.418067          -11.37619
     62       1.00000          -0.414616          -11.28228
     63       1.00000          -0.401038          -10.91279
     64       1.00000          -0.399396          -10.86812
     65       1.00000          -0.390295          -10.62047
     66       1.00000          -0.386263          -10.51074
     67       1.00000          -0.369486          -10.05424
     68       1.00000          -0.366748           -9.97972
     69       1.00000          -0.359127           -9.77234
     70       1.00000          -0.338214           -9.20326
     71       1.00000          -0.332797           -9.05588
     72       1.00000          -0.327351           -8.90768
     73       1.00000          -0.319981           -8.70712
     74       1.00000          -0.313321           -8.52589
     75       1.00000          -0.305685           -8.31810
     76       1.00000          -0.301801           -8.21241
     77       0.00000          -0.248969           -6.77479
     78       0.00000          -0.246976           -6.72055
     79       0.00000          -0.231088           -6.28823
     80       0.00000          -0.227343           -6.18630
     81       0.00000          -0.213738           -5.81609
     82       0.00000          -0.204963           -5.57733
     83       0.00000          -0.199922           -5.44015
     84       0.00000          -0.198410           -5.39902
     85       0.00000          -0.195991           -5.33320
     86       0.00000          -0.195445           -5.31832
     87       0.00000          -0.181379           -4.93556
     88       0.00000          -0.165141           -4.49371
     89       0.00000          -0.149456           -4.06690
     90       0.00000          -0.141160           -3.84115
     91       0.00000          -0.094322           -2.56664
     92       0.00000          -0.089255           -2.42876
     93       0.00000          -0.081451           -2.21641
     94       0.00000          -0.080043           -2.17809
     95       0.00000          -0.049244           -1.34000
     96       0.00000          -0.043509           -1.18395
     97       0.00000          -0.042938           -1.16840
     98       0.00000          -0.036503           -0.99330
     99       0.00000           0.051222            1.39382
    100       0.00000           0.095384            2.59554
    101       0.00000           0.106167            2.88895
    102       0.00000           0.122545            3.33463
    103       0.00000           0.128057            3.48461
    104       0.00000           0.149703            4.07363
    105       0.00000           0.192453            5.23691
    106       0.00000           0.213884            5.82009
    107       0.00000           0.240569            6.54622
    108       0.00000           0.261695            7.12107
    109       0.00000           0.283570            7.71633
    110       0.00000           0.330386            8.99026
    111       0.00000           0.354334            9.64191
    112       0.00000           0.365800            9.95391
    113       0.00000           0.380718           10.35986
    114       0.00000           0.395509           10.76234
    115       0.00000           0.398855           10.85339
    116       0.00000           0.407272           11.08243
    117       0.00000           0.411588           11.19987
    118       0.00000           0.423796           11.53208
    119       0.00000           0.470303           12.79760
    120       0.00000           0.482204           13.12144
    121       0.00000           0.489765           13.32719
    122       0.00000           0.499106           13.58137

  Current spin moment of the entire structure :
  | N = N_up - N_down (sum over all k points):         0.00000
  | S (sum over all k points)                :         0.00000

  What follows are estimated values for band gap, HOMO, LUMO, etc.
  | They are estimated on a discrete k-point grid and not necessarily exact.
  | For converged numbers, create a DOS and/or band structure plot on a denser k-grid.

  Highest occupied state (VBM) at     -8.21240973 eV (relative to internal zero)
  | Occupation number:      1.00000000
  | K-point:       1 at    0.000000    0.000000    0.000000 (in units of recip. lattice)
  | Spin channel:        2

  Lowest unoccupied state (CBM) at    -6.77478892 eV (relative to internal zero)
  | Occupation number:      0.00000000
  | K-point:       1 at    0.000000    0.000000    0.000000 (in units of recip. lattice)
  | Spin channel:        2

  ESTIMATED overall HOMO-LUMO gap:      1.43762081 eV between HOMO at k-point 1 and LUMO at k-point 1
  | This appears to be a direct band gap.
  The gap value is above 0.2 eV. Unless you are using a very sparse k-point grid,
  this system is most likely an insulator or a semiconductor.

  Total energy components:
  | Sum of eigenvalues            :       -2376.61112113 Ha      -64670.87902398 eV
  | XC energy correction          :        -237.23310241 Ha       -6455.44116581 eV
  | XC potential correction       :         306.71336994 Ha        8346.09544072 eV
  | Free-atom electrostatic energy:       -1712.43218930 Ha      -46597.65073329 eV
  | Hartree energy correction     :          -0.52596837 Ha         -14.31232766 eV
  | Entropy correction            :           0.00000000 Ha           0.00000000 eV
  | ---------------------------
  | Total energy                  :       -4020.08901127 Ha     -109392.18781002 eV
  | Total energy, T -> 0          :       -4020.08901127 Ha     -109392.18781002 eV  <-- do not rely on this value for anything but (periodic) metals
  | Electronic free energy        :       -4020.08901127 Ha     -109392.18781002 eV

  Derived energy quantities:
  | Kinetic energy                :        4066.93648215 Ha      110666.97235286 eV
  | Electrostatic energy          :       -7849.79239101 Ha     -213603.71899707 eV
  | Energy correction for multipole
  | error in Hartree potential    :           0.03029296 Ha           0.82431325 eV
  | Sum of eigenvalues per atom                           :       -5389.23991867 eV
  | Total energy (T->0) per atom                          :       -9116.01565084 eV  <-- do not rely on this value for anything but (periodic) metals
  | Electronic free energy per atom                       :       -9116.01565084 eV
  End evaluation of scaled ZORA corrections.
  | Time for scaled ZORA corrections            :        1.015 s           1.015 s
------------------------------------------------------------

  Energy and forces in a compact form:
  | Total energy uncorrected      :         -0.109392187810023E+06 eV
  | Total energy corrected        :         -0.109392187810023E+06 eV  <-- do not rely on this value for anything but (periodic) metals
  | Electronic free energy        :         -0.109392187810023E+06 eV

  ------------------------------------ 
  Start decomposition of the XC Energy 
  ------------------------------------ 
  X and C from original XC functional choice 
  Hartree-Fock Energy :          0.000000000 Ha              0.000000000 eV
  X Energy            :       -231.253451411 Ha          -6292.726583303 eV
  C Energy            :         -5.979650999 Ha           -162.714582510 eV
  XC Energy w/o HF    :       -237.233102410 Ha          -6455.441165814 eV
  Total XC Energy     :       -237.233102410 Ha          -6455.441165814 eV
  ------------------------------------ 
  LDA X and C from self-consistent density 
  X Energy LDA        :       -214.604103752 Ha          -5839.674782483 eV
  C Energy LDA        :        -11.731425865 Ha           -319.228339944 eV
  ------------------------------------ 
  End decomposition of the XC Energy 
  ------------------------------------ 

------------------------------------------------------------

  ------------------------------------------------------------
                   Starting Mulliken Analysis
  ------------------------------------------------------------

  Performing Mulliken charge analysis on all atoms.
  Full analysis will be written to separate file 'Mulliken.out'.
  Summary of the per-atom charge analysis:
  |
  |  atom       electrons          charge             l=0             l=1             l=2             l=3             l=4
  |     1        8.469855       -0.469855        3.881532        4.577224        0.011099
  |     2        8.668499       -0.668499        3.856876        4.801157        0.010465
  |     3       21.076827        0.923173        6.325738       12.544766        2.092964        0.113358
  |     4       20.974236        1.025764        6.067035       12.513605        2.250310        0.143286
  |     5        8.668502       -0.668502        3.856875        4.801161        0.010465
  |     6        8.620342       -0.620342        3.832039        4.777647        0.010656
  |     7        7.376865        0.723135        3.625155        4.267392       -0.524827        0.008287        0.000858
  |     8        8.686032       -0.686032        3.854021        4.821565        0.010446
  |     9       20.867635        1.132365        6.141653       12.456905        2.148835        0.120241
  |    10       21.437187        0.562813        6.332113       12.702100        2.267379        0.135594
  |    11        8.686030       -0.686030        3.854022        4.821562        0.010446
  |    12        8.467993       -0.467993        3.880841        4.576041        0.011112
  |
  | Total      152.000000        0.100000
 
  Summary of the per-atom spin analysis:
  |
  |  atom   spin      l=0         l=1         l=2         l=3         l=4
  |     1    0.000000   -0.000000    0.000000   -0.000000
  |     2    0.000000    0.000000    0.000000    0.000000
  |     3    0.000000    0.000000    0.000000    0.000000    0.000000
  |     4    0.000000    0.000000    0.000000    0.000000    0.000000
  |     5    0.000000    0.000000    0.000000    0.000000
  |     6    0.000000   -0.000000    0.000000   -0.000000
  |     7   -0.000000   -0.000000    0.000000    0.000000    0.000000    0.000000
  |     8   -0.000000    0.000000   -0.000000   -0.000000
  |     9    0.000000    0.000000    0.000000   -0.000000    0.000000
  |    10    0.000000    0.000000    0.000000    0.000000    0.000000
  |    11   -0.000000   -0.000000   -0.000000   -0.000000
  |    12   -0.000000   -0.000000   -0.000000    0.000000
  |
  | Total   -0.000000
 
  Writing Mulliken decomposition to disk ...

  Mulliken analysis                                       :  max(cpu_time)    wall_clock(cpu1)
  | Time for Mulliken analysis                            :          1.118               1.118
  | Total time for Mulliken analysis                      :          1.118               1.118
------------------------------------------------------------

------------------------------------------------------------------------------
  Final output of selected total energy values:

  The following output summarizes some interesting total energy values
  at the end of a run (AFTER all relaxation, molecular dynamics, etc.).

  | Total energy of the DFT / Hartree-Fock s.c.f. calculation      :        -109392.187810023 eV
  | Final zero-broadening corrected energy (caution - metals only) :        -109392.187810023 eV
  | For reference only, the value of 1 Hartree used in FHI-aims is :             27.211384500 eV
  | For reference only, the overall average (free atom contribution
  | + realspace contribution) of the electrostatic potential after
  | s.c.f. convergence is                                          :             -5.047670473 eV

  Before relying on these values, please be sure to understand exactly which
  total energy value is referred to by a given number. Different objects may
  all carry the same name 'total energy'. Definitions:

  Total energy of the DFT / Hartree-Fock s.c.f. calculation:
  | Note that this energy does not include ANY quantities calculated after the
  | s.c.f. cycle, in particular not ANY RPA, MP2, etc. many-body perturbation terms.
  | Scalar relativistic effects have been included in the 'scaled ZORA' approximation.

  Final zero-broadening corrected energy:
  | For metallic systems only, a broadening of the occupation numbers at the Fermi
  | level can be extrapolated back to zero broadening by an electron-gas inspired
  | formula. For all systems that are not real metals, this value can be
  | meaningless and should be avoided.

------------------------------------------------------------------------------
  Methods described in the following list of references were used in this FHI-aims run.
  If you publish the results, please make sure to cite these reference if they apply.
  FHI-aims is an academic code, and for our developers (often, Ph.D. students
  and postdocs), scientific credit in the community is essential.
  Thank you for helping us!

  For any use of FHI-aims, please cite:

    Volker Blum, Ralf Gehrke, Felix Hanke, Paula Havu, Ville Havu,
    Xinguo Ren, Karsten Reuter, and Matthias Scheffler
    'Ab initio molecular simulations with numeric atom-centered orbitals'
    Computer Physics Communications 180, 2175-2196 (2009)
    http://doi.org/10.1016/j.cpc.2009.06.022


  The provided symmetry information was generated with SPGlib:

    Atsushi Togo, Yusuke Seto, Dimitar Pashov
    SPGlib 1.7.3 obtained from http://spglib.sourceforge.net
    Licence: New BSD license
    Copyright (C) 2008 Atsushi Togo


  The ELSI infrastructure was used in your run to solve the Kohn-Sham electronic structure.
  Please check out https://wordpress.elsi-interchange.org to learn more.
  If scalability is important for your project, please acknowledge ELSI by citing:

    V. W-z. Yu, F. Corsetti, A. Garcia, W. P. Huhn, M. Jacquelin, W. Jia,
    B. Lange, L. Lin, J. Lu, W. Mi, A. Seifitokaldani, A. Vazquez-Mayagoitia,
    C. Yang, H. Yang, and V. Blum
    'ELSI: A unified software interface for Kohn-Sham electronic structure solvers'
    Computer Physics Communications 222, 267-285 (2018).
    http://doi.org/10.1016/j.cpc.2017.09.007


  For the real-space grid partitioning and parallelization used in this calculation, please cite:

    Ville Havu, Volker Blum, Paula Havu, and Matthias Scheffler,
    'Efficient O(N) integration for all-electron electronic structure calculation'
    'using numerically tabulated basis functions'
    Journal of Computational Physics 228, 8367-8379 (2009).
    http://doi.org/10.1016/j.jcp.2009.08.008

  Of course, there are many other important community references, e.g., those cited in the
  above references. Our list is limited to references that describe implementations in the
  FHI-aims code. The reason is purely practical (length of this list) - please credit others as well.

------------------------------------------------------------
          Leaving FHI-aims.
          Date     :  20241013, Time     :  110409.363

          Computational steps:
          | Number of self-consistency cycles          :           20
          | Number of SCF (re)initializations          :            1

          Detailed time accounting                     :  max(cpu_time)    wall_clock(cpu1)
          | Total time                                  :       48.649 s          48.651 s
          | Preparation time                            :        0.501 s           0.499 s
          | Boundary condition initalization            :        0.036 s           0.037 s
          | Grid partitioning                           :        0.067 s           0.067 s
          | Preloading free-atom quantities on grid     :        0.135 s           0.135 s
          | Free-atom superposition energy              :        0.013 s           0.013 s
          | Total time for integrations                 :       15.106 s          15.107 s
          | Total time for solution of K.-S. equations  :        2.400 s           2.401 s
          | Total time for density update               :       15.406 s          15.406 s
          | Total time for mixing & preconditioning     :       11.374 s          11.374 s
          | Total time for Hartree multipole update     :        0.038 s           0.037 s
          | Total time for Hartree multipole sum        :        1.309 s           1.309 s
          | Total time for total energy evaluation      :        0.006 s           0.006 s
          | Total time for scaled ZORA corrections      :        1.015 s           1.015 s
          | Total time for Mulliken analysis            :        1.118 s           1.118 s

          Partial memory accounting:
          | Residual value for overall tracked memory usage across tasks:     0.000000 MB (should be 0.000000 MB)
          | Peak values for overall tracked memory usage:
          |   Minimum:       41.012 MB (on task  6 after allocating zora_vector2)
          |   Maximum:       45.519 MB (on task 28 after allocating zora_vector2)
          |   Average:       42.774 MB
          | Largest tracked array allocation:
          |   Minimum:        6.973 MB (zora_vector1 on task  6)
          |   Maximum:        7.965 MB (zora_vector1 on task 28)
          |   Average:        7.333 MB
          Note:  These values currently only include a subset of arrays which are explicitly tracked.
          The "true" memory usage will be greater.

          Have a nice day.
------------------------------------------------------------
