------------------------------------------------------------
          Invoking FHI-aims ...

          When using FHI-aims, please cite the following reference:

            Volker Blum, Ralf Gehrke, Felix Hanke, Paula Havu,
            Ville Havu, Xinguo Ren, Karsten Reuter, and Matthias Scheffler,
            'Ab Initio Molecular Simulations with Numeric Atom-Centered Orbitals',
            Computer Physics Communications 180, 2175-2196 (2009)

          In addition, many other developments in FHI-aims are likely important for
          your particular application. If so, please cite them. A partial list of references
          is written at the end of this file. Thank you for giving credit to the authors
          of these developments.

          For general information about FHI-aims please find us at

            https://fhi-aims.org

          Online tutorials can be found at

            https://fhi-aims-club.gitlab.io/tutorials/tutorials-overview/

          For any questions about FHI-aims, please visit our slack channel at

            https://fhi-aims.slack.com

          and our main development and support site at

            https://aims-git.rz-berlin.mpg.de .

          The latter site, in particular, has a wiki to collect information, as well
          as an issue tracker to log discussions, suggest improvements, and report issues
          or bugs. https://aims-git.rz-berlin.mpg.de is also the main development site
          of the project and all new and updated code versions can be obtained there.
          Please send an email to aims-coordinators@fhi-berlin.mpg.de and we will add
          you to these sites. They are for you and everyone is welcome there.

------------------------------------------------------------



  Date     :  20241021, Time     :  115617.879
  Time zero on CPU 1             :   0.391881000000000E+00  s.
  Internal wall clock time zero  :           498743777.879  s.

  FHI-aims created a unique identifier for this run for later identification
  aims_uuid : 29C2C322-FC05-4BC3-A631-45BC071F7FCC

  Build configuration of the current instance of FHI-aims
  -------------------------------------------------------
  FHI-aims version      : 240605
  Commit number         : b001b2e18
  CMake host system     : Linux-6.5.0-41-generic
  CMake version         : 3.22.1
  Fortran compiler      : /opt/intel/oneapi/mpi/2021.12/bin/mpiifort (IntelLLVM) version 2024.1.0
  Fortran compiler flags: -fc=ifx -O3 -ip -fp-model precise
  C compiler            : /opt/intel/oneapi/mpi/2021.12/bin/mpiicc (IntelLLVM) version 2024.1.0
  C compiler flags      : -cc=icx -O3 -ip -fp-model precise -std=gnu99
  C++ compiler          : /opt/intel/oneapi/mpi/2021.12/bin/mpiicpc (IntelLLVM) version 2024.1.0
  C++ compiler flags    : -cxx=icpx -O3 -ip -fp-model precise -std=c++11
  HIP compiler          :
  HIP compiler flags    :
  HIP GPU arch          :
  Using MPI
  Using ScaLAPACK
  Using LibXC
  Using i-PI
  Using RLSY
  Linking against: /opt/intel/oneapi/mkl/2024.1/lib/intel64/libmkl_intel_lp64.so
                   /opt/intel/oneapi/mkl/2024.1/lib/intel64/libmkl_sequential.so
                   /opt/intel/oneapi/mkl/2024.1/lib/intel64/libmkl_core.so
                   /opt/intel/oneapi/mkl/2024.1/lib/intel64/libmkl_blacs_intelmpi_lp64.so
                   /opt/intel/oneapi/mkl/2024.1/lib/intel64/libmkl_scalapack_lp64.so
                   /opt/intel/oneapi/mkl/2024.1/lib/intel64/libmkl_core.so

  Using       32 parallel tasks.
  Task        0 on host RSL-arvutus reporting.
  Task        1 on host RSL-arvutus reporting.
  Task        2 on host RSL-arvutus reporting.
  Task        3 on host RSL-arvutus reporting.
  Task        4 on host RSL-arvutus reporting.
  Task        5 on host RSL-arvutus reporting.
  Task        6 on host RSL-arvutus reporting.
  Task        7 on host RSL-arvutus reporting.
  Task        8 on host RSL-arvutus reporting.
  Task        9 on host RSL-arvutus reporting.
  Task       10 on host RSL-arvutus reporting.
  Task       11 on host RSL-arvutus reporting.
  Task       12 on host RSL-arvutus reporting.
  Task       13 on host RSL-arvutus reporting.
  Task       14 on host RSL-arvutus reporting.
  Task       15 on host RSL-arvutus reporting.
  Task       16 on host RSL-arvutus reporting.
  Task       17 on host RSL-arvutus reporting.
  Task       18 on host RSL-arvutus reporting.
  Task       19 on host RSL-arvutus reporting.
  Task       20 on host RSL-arvutus reporting.
  Task       21 on host RSL-arvutus reporting.
  Task       22 on host RSL-arvutus reporting.
  Task       23 on host RSL-arvutus reporting.
  Task       24 on host RSL-arvutus reporting.
  Task       25 on host RSL-arvutus reporting.
  Task       26 on host RSL-arvutus reporting.
  Task       27 on host RSL-arvutus reporting.
  Task       28 on host RSL-arvutus reporting.
  Task       29 on host RSL-arvutus reporting.
  Task       30 on host RSL-arvutus reporting.
  Task       31 on host RSL-arvutus reporting.

  Memory overcommitment is allowed on your operating system.

  Obtaining array dimensions for all initial allocations:
  
  -----------------------------------------------------------------------
  Parsing control.in (first pass over file, find array dimensions only).
  The contents of control.in will be repeated verbatim below
  unless switched off by setting 'verbatim_writeout .false.' .
  in the first line of control.in .
  -----------------------------------------------------------------------
  
    xc              pbe
    relativistic    zora scalar 1.0e-12
    KS_method	  serial
    k_grid          8 8 12
  
    spin		  collinear
    default_initial_moment	0.0
  
    output          Mulliken
    output_level	  full
  
  
  ################################################################################
  #
  #  FHI-aims code project
  #  VB, Fritz-Haber Institut, 2009
  #
  #  Suggested "light" defaults for Ti atom (to be pasted into control.in file)
  #  Be sure to double-check any results obtained with these settings for post-processing,
  #  e.g., with the "tight" defaults and larger basis sets.
  #
  ################################################################################
    species        Ti
  #     global species definitions
      nucleus             22
      mass                47.867
  #
      l_hartree           4
  #
      cut_pot             3.5          1.5  1.0
      basis_dep_cutoff    1e-4
  #
      radial_base         48 5.0
      radial_multiplier   1
      angular_grids       specified
        division   0.5171   50
        division   0.9824  110
        division   1.2917  194
        division   1.4940  302
  #      division   1.6934  434
  #      division   1.8425  590
  #      division   2.1901  770
  #      division   2.2896  974
  #      division   2.8244 1202
  #      outer_grid  974
        outer_grid  302
  ################################################################################
  #
  #  Definition of "minimal" basis
  #
  ################################################################################
  #     valence basis states
      valence      4  s   2.
      valence      3  p   6.
      valence      3  d   2.
  #     ion occupancy
      ion_occ      4  s   1.
      ion_occ      3  p   6.
      ion_occ      3  d   1.
  ################################################################################
  #
  #  Suggested additional basis functions. For production calculations,
  #  uncomment them one after another (the most important basis functions are
  #  listed first).
  #
  #  Constructed for dimers: 1.6 A, 1.85 A, 2.5 A, 3.25 A, 4.25 A
  #
  ################################################################################
  #  "First tier" - improvements: -396.25 meV to -19.41 meV
       hydro 4 f 8
       hydro 3 d 2.7
       ionic 4 p auto
  #     hydro 5 g 11.6
       ionic 4 s auto
  #  "Second tier" - improvements: -16.30 meV to -2.03 meV
  #     hydro 3 d 4.4
  #     hydro 6 h 16
  #     hydro 4 f 9.4
  #     hydro 4 p 4.5
  #     hydro 1 s 0.5
  #  "Third tier" - improvements: -6.28 meV to -0.37 meV
  #     hydro 4 d 6.4
  #     hydro 4 f 10
  #     hydro 5 g 12
  #     hydro 2 p 1.7
  #     hydro 6 h 16.4
  #     hydro 4 s 3.8
  #  Further basis functions: -0.45 meV and smaller improvements
  #     hydro 3 d 8.8
  #     hydro 5 p 18
  #     hydro 4 f 22.4
  #     hydro 5 f 7.2  # -0.16 meV
  #     hydro 3 d 2.1  # -0.11 meV
  #     hydro 5 g 7.4  # -0.09 meV
  
  
  ################################################################################
  #
  #  FHI-aims code project
  #  VB, Fritz-Haber Institut, 2009
  #
  #  Suggested "light" defaults for O atom (to be pasted into control.in file)
  #  Be sure to double-check any results obtained with these settings for post-processing,
  #  e.g., with the "tight" defaults and larger basis sets.
  #
  ################################################################################
    species        O
  #     global species definitions
      nucleus             8
      mass                15.9994
  #
      l_hartree           4
  #
      cut_pot             3.5  1.5  1.0
      basis_dep_cutoff    1e-4
  #
      radial_base         36 5.0
      radial_multiplier   1
       angular_grids specified
        division   0.2659   50
        division   0.4451  110
        division   0.6052  194
        division   0.7543  302
  #      division   0.8014  434
  #      division   0.8507  590
  #      division   0.8762  770
  #      division   0.9023  974
  #      division   1.2339 1202
  #      outer_grid 974
        outer_grid 302
  ################################################################################
  #
  #  Definition of "minimal" basis
  #
  ################################################################################
  #     valence basis states
      valence      2  s   2.
      valence      2  p   4.
  #     ion occupancy
      ion_occ      2  s   1.
      ion_occ      2  p   3.
  ################################################################################
  #
  #  Suggested additional basis functions. For production calculations,
  #  uncomment them one after another (the most important basis functions are
  #  listed first).
  #
  #  Constructed for dimers: 1.0 A, 1.208 A, 1.5 A, 2.0 A, 3.0 A
  #
  ################################################################################
  #  "First tier" - improvements: -699.05 meV to -159.38 meV
       hydro 2 p 1.8
       hydro 3 d 7.6
       hydro 3 s 6.4
  #  "Second tier" - improvements: -49.91 meV to -5.39 meV
  #     hydro 4 f 11.6
  #     hydro 3 p 6.2
  #     hydro 3 d 5.6
  #     hydro 5 g 17.6
  #     hydro 1 s 0.75
  #  "Third tier" - improvements: -2.83 meV to -0.50 meV
  #     ionic 2 p auto
  #     hydro 4 f 10.8
  #     hydro 4 d 4.7
  #     hydro 2 s 6.8
  #  "Fourth tier" - improvements: -0.40 meV to -0.12 meV
  #     hydro 3 p 5
  #     hydro 3 s 3.3
  #     hydro 5 g 15.6
  #     hydro 4 f 17.6
  #     hydro 4 d 14
  # Further basis functions - -0.08 meV and below
  #     hydro 3 s 2.1
  #     hydro 4 d 11.6
  #     hydro 3 p 16
  #     hydro 2 s 17.2
  
  ################################################################################
  #
  #  "Core" basis functions and numerical settings for O atom.
  #  Based on “tight” defaults (V. Blum, 2009).
  #
  ################################################################################
    species        O1
  #     global species definitions
      nucleus             8.
      mass                15.9994
  #
      l_hartree           6
  #
      cut_pot             4.0  2.0  1.0
      basis_dep_cutoff    1e-4
  #
      radial_base         36 7.0
      radial_multiplier   2
       angular_grids specified
        division   0.1817   50
        division   0.3417  110
        division   0.4949  194
        division   0.6251  302
        division   0.8014  434
  #      division   0.8507  590
  #      division   0.8762  770
  #      division   0.9023  974
  #      division   1.2339 1202
  #      outer_grid 974
        outer_grid  434
  ################################################################################
  #
  #  Definition of "minimal" basis
  #
  ################################################################################
  #     valence basis states
      valence      2  s   2.
      valence      2  p   4.
  #     ion occupancy
      ion_occ      2  s   1.
      ion_occ      2  p   3.
  ################################################################################
  #
  #  Suggested additional basis functions. For production calculations,
  #  uncomment them one after another (the most important basis functions are
  #  listed first).
  #
  #  Constructed for dimers: 1.0 A, 1.208 A, 1.5 A, 2.0 A, 3.0 A
  #
  ################################################################################
  #  "First tier" - improvements: -699.05 meV to -159.38 meV
       hydro 2 p 1.8
       hydro 3 d 7.6
       hydro 3 s 6.4
  #  "Second tier" - improvements: -49.91 meV to -5.39 meV
       hydro 4 f 11.6
       hydro 3 p 6.2
       hydro 3 d 5.6
       hydro 5 g 17.6
       hydro 1 s 0.75
  #  "Third tier" - improvements: -2.83 meV to -0.50 meV
       ionic 2 p auto
       hydro 4 f 10.8
       hydro 4 d 4.7
       hydro 2 s 6.8
  #  "Fourth tier" - improvements: -0.40 meV to -0.12 meV
  #     hydro 3 p 5
  #     hydro 3 s 3.3
  #     hydro 5 g 15.6
  #     hydro 4 f 17.6
  #     hydro 4 d 14
  # Further basis functions - -0.08 meV and below
  #     hydro 3 s 2.1
  #     hydro 4 d 11.6
  #     hydro 3 p 16
  #     hydro 2 s 17.2
  
  # Additional basis functions for atom with a core hole
       hydro 1 s 12.0
       hydro 1 s 10.0
       hydro 1 s 6.0
       hydro 2 s 10.0
       hydro 2 p 8.0
       hydro 2 p 6.0
       hydro 3 d 8.0
  
  -----------------------------------------------------------------------
  Completed first pass over input file control.in .
  -----------------------------------------------------------------------
  
  
  -----------------------------------------------------------------------
  Parsing geometry.in (first pass over file, find array dimensions only).
  The contents of geometry.in will be repeated verbatim below
  unless switched off by setting 'verbatim_writeout .false.' .
  in the first line of geometry.in .
  -----------------------------------------------------------------------
  
  #
  # This is the geometry file that corresponds to the current relaxation step.
  # If you do not want this file to be written, set the "write_restart_geometry" flag to .false.
  #  aims_uuid : 704D9F80-A97A-4D94-A235-1E89D88A13DD
  #
  lattice_vector      4.64306176      0.00012152     -0.00000000
  lattice_vector      0.00012172      4.64308665      0.00000000
  lattice_vector     -0.00000000      0.00000000      2.97288267
  atom_frac      -0.00000001      0.00000001     -0.00000000 Ti
  atom_frac       0.50000000      0.50000000      0.50000000 Ti
  atom_frac       0.30555823      0.30556717      0.00000000 O1
  atom_frac       0.69444177      0.69443283      0.00000000 O
  atom_frac       0.19444622      0.80556274      0.50000000 O
  atom_frac       0.80555378      0.19443725      0.50000000 O
  #
  # What follows is the current estimated Hessian matrix constructed by the BFGS algorithm.
  # This is NOT the true Hessian matrix of the system.
  # If you do not want this information here, switch it off using the "hessian_to_restart_geometry" keyword.
  #
  trust_radius             0.8000000119
  hessian_file
  
  -----------------------------------------------------------------------
  Completed first pass over input file geometry.in .
  -----------------------------------------------------------------------
  

  Basic array size parameters:
  | Number of species                 :        3
  | Number of atoms                   :        6
  | Number of lattice vectors         :        3
  | Max. basis fn. angular momentum   :        4
  | Max. atomic/ionic basis occupied n:        4
  | Max. number of basis fn. types    :        3
  | Max. radial fns per species/type  :       18
  | Max. logarithmic grid size        :     1383
  | Max. radial integration grid size :       73
  | Max. angular integration grid size:      434
  | Max. angular grid division number :        8
  | Radial grid for Hartree potential :     1383
  | Number of spin channels           :        2

------------------------------------------------------------
          Reading file control.in.
------------------------------------------------------------
  XC: Using PBE gradient-corrected functionals.
  Scalar relativistic treatment of kinetic energy: ZORA.
  Threshold value for ZORA:   0.100000E-11
  Kohn-Sham eigenvalues and eigenfunctions calculated by LAPACK via ELSI.
  Found k-point grid:         8         8        12
  Spin treatment: Spin density functional theory - collinear spins.
  Initial spin moment per atom:   0.0000
  Mulliken charge analysis will be performed and summarised to the main output.
  Full Mulliken charge analysis will be written to file 'Mulliken.out'.
  Requested output level: full
 
  Reading configuration options for species Ti                  .
  | Found nuclear charge :  22.0000
  | Found atomic mass :    47.8670000000000      amu
  | Found l_max for Hartree potential  :   4
  | Found cutoff potl. onset [A], width [A], scale factor :    3.50000    1.50000    1.00000
  | Threshold for basis-dependent cutoff potential is   0.100000E-03
  | Found data for basic radial integration grid :    48 points, outermost radius =    5.000 A
  | Found multiplier for basic radial grid :   1
  | Found angular grid specification: user-specified.
  | Specified grid contains     5 separate shells.
  | Check grid settings after all constraints further below.
  | Found free-atom valence shell :  4 s   2.000
  | Found free-atom valence shell :  3 p   6.000
  | Found free-atom valence shell :  3 d   2.000
  | Found free-ion valence shell :  4 s   1.000
  | Found free-ion valence shell :  3 p   6.000
  | Found free-ion valence shell :  3 d   1.000
  | Found hydrogenic basis function :  4 f   8.000
  | Found hydrogenic basis function :  3 d   2.700
  | Found ionic basis function :  4 p , default cutoff radius.
  | Found ionic basis function :  4 s , default cutoff radius.
 | Encountered keyword species, ending the description of species Ti                  .
  Species Ti                  : Missing cutoff potential type.
  Defaulting to exp(1/x)/(1-x)^2 type cutoff potential.
  Species Ti: No 'logarithmic' tag. Using default grid for free atom:
  | Default logarithmic grid data [bohr] : 0.1000E-03 0.1000E+03 0.1012E+01
  | Will include ionic basis functions of  2.0-fold positive Ti                   ion.
  Species Ti: On-site basis accuracy parameter (for Gram-Schmidt orthonormalisation) not specified.
  Using default value basis_acc =  0.1000000E-03.
  Species Ti                  : Using default innermost maximum threshold i_radial=  2 for radial functions.
  Species Ti                  : Default cutoff onset for free atom density etc. : 0.35000000E+01 AA.
  Species Ti                  : Basic radial grid will be enhanced according to radial_multiplier =   1, to contain    48 grid points.
 
  Reading configuration options for species O                   .
  | Found nuclear charge :   8.0000
  | Found atomic mass :    15.9994000000000      amu
  | Found l_max for Hartree potential  :   4
  | Found cutoff potl. onset [A], width [A], scale factor :    3.50000    1.50000    1.00000
  | Threshold for basis-dependent cutoff potential is   0.100000E-03
  | Found data for basic radial integration grid :    36 points, outermost radius =    5.000 A
  | Found multiplier for basic radial grid :   1
  | Found angular grid specification: user-specified.
  | Specified grid contains     5 separate shells.
  | Check grid settings after all constraints further below.
  | Found free-atom valence shell :  2 s   2.000
  | Found free-atom valence shell :  2 p   4.000
  | Found free-ion valence shell :  2 s   1.000
  | Found free-ion valence shell :  2 p   3.000
  | Found hydrogenic basis function :  2 p   1.800
  | Found hydrogenic basis function :  3 d   7.600
  | Found hydrogenic basis function :  3 s   6.400
 | Encountered keyword species, ending the description of species O                   .
  Species O                   : Missing cutoff potential type.
  Defaulting to exp(1/x)/(1-x)^2 type cutoff potential.
  Species O : No 'logarithmic' tag. Using default grid for free atom:
  | Default logarithmic grid data [bohr] : 0.1000E-03 0.1000E+03 0.1012E+01
  Species O : On-site basis accuracy parameter (for Gram-Schmidt orthonormalisation) not specified.
  Using default value basis_acc =  0.1000000E-03.
  Species O                   : Using default innermost maximum threshold i_radial=  2 for radial functions.
  Species O                   : Default cutoff onset for free atom density etc. : 0.35000000E+01 AA.
  Species O                   : Basic radial grid will be enhanced according to radial_multiplier =   1, to contain    36 grid points.
 
  Reading configuration options for species O1                  .
  | Found nuclear charge :   8.0000
  | Found atomic mass :    15.9994000000000      amu
  | Found l_max for Hartree potential  :   6
  | Found cutoff potl. onset [A], width [A], scale factor :    4.00000    2.00000    1.00000
  | Threshold for basis-dependent cutoff potential is   0.100000E-03
  | Found data for basic radial integration grid :    36 points, outermost radius =    7.000 A
  | Found multiplier for basic radial grid :   2
  | Found angular grid specification: user-specified.
  | Specified grid contains     6 separate shells.
  | Check grid settings after all constraints further below.
  | Found free-atom valence shell :  2 s   2.000
  | Found free-atom valence shell :  2 p   4.000
  | Found free-ion valence shell :  2 s   1.000
  | Found free-ion valence shell :  2 p   3.000
  | Found hydrogenic basis function :  2 p   1.800
  | Found hydrogenic basis function :  3 d   7.600
  | Found hydrogenic basis function :  3 s   6.400
  | Found hydrogenic basis function :  4 f  11.600
  | Found hydrogenic basis function :  3 p   6.200
  | Found hydrogenic basis function :  3 d   5.600
  | Found hydrogenic basis function :  5 g  17.600
  | Found hydrogenic basis function :  1 s   0.750
  | Found ionic basis function :  2 p , default cutoff radius.
  | Found hydrogenic basis function :  4 f  10.800
  | Found hydrogenic basis function :  4 d   4.700
  | Found hydrogenic basis function :  2 s   6.800
  | Found hydrogenic basis function :  1 s  12.000
  | Found hydrogenic basis function :  1 s  10.000
  | Found hydrogenic basis function :  1 s   6.000
  | Found hydrogenic basis function :  2 s  10.000
  | Found hydrogenic basis function :  2 p   8.000
  | Found hydrogenic basis function :  2 p   6.000
  | Found hydrogenic basis function :  3 d   8.000
  Species O1                  : Missing cutoff potential type.
  Defaulting to exp(1/x)/(1-x)^2 type cutoff potential.
  Species O1: No 'logarithmic' tag. Using default grid for free atom:
  | Default logarithmic grid data [bohr] : 0.1000E-03 0.1000E+03 0.1012E+01
  | Will include ionic basis functions of  2.0-fold positive O1                   ion.
  Species O1: On-site basis accuracy parameter (for Gram-Schmidt orthonormalisation) not specified.
  Using default value basis_acc =  0.1000000E-03.
  Species O1                  : Using default innermost maximum threshold i_radial=  2 for radial functions.
  Species O1                  : Default cutoff onset for free atom density etc. : 0.40000000E+01 AA.
  Species O1                  : Basic radial grid will be enhanced according to radial_multiplier =   2, to contain    73 grid points.
 
  Finished reading input file 'control.in'.
 
------------------------------------------------------------


------------------------------------------------------------
          Reading geometry description geometry.in.
------------------------------------------------------------
 * Large trust radius value found - resetting to the current value of max_atomic_move,      0.20000000 A.
  Found keyword 'hessian_file', indicating that this is the continuation of a structure optimization.
  However, the control.in file does not request the geometry to be optimized.
  Ignoring the request for a file 'hessian.aims' to be present.
  | The smallest distance between any two atoms is         1.95947562 AA.
  | The first atom of this pair is atom number                      1 .
  | The second atom of this pair is atom number                     6 .
  | Wigner-Seitz cell of the first atom image           0     0     0 .
  | (The Wigner-Seitz cell of the second atom is 0 0 0  by definition.)

  Symmetry information by spglib:
  | Precision set to  0.1E-04
  | Number of Operations  : 2
  | Space group           : 6
  | International         : Pm      /op
  | Schoenflies           : Cs^1
  Input structure read successfully.
  The structure contains        6 atoms,  and a total of         76.000 electrons.

  Input geometry:
  | Unit cell:
  |        4.64306176        0.00012152        0.00000000
  |        0.00012172        4.64308665        0.00000000
  |        0.00000000        0.00000000        2.97288267
  | Atomic structure:
  |       Atom                x [A]            y [A]            z [A]
  |    1: Species Ti           -0.00000005        0.00000005        0.00000000
  |    2: Species Ti            2.32159174        2.32160409        1.48644134
  |    3: Species O1            1.41876293        1.41881198        0.00000000
  |    4: Species O             3.22442055        3.22439619        0.00000000
  |    5: Species O             0.90292386        3.74032123        1.48644134
  |    6: Species O             3.74025962        0.90288689        1.48644134

  Lattice parameters for 3D lattice (in Angstroms) :     4.643062    4.643087    2.972883
  Angle(s) between unit vectors (in degrees)       :    90.000000   90.000000   89.996998


  Quantities derived from the lattice vectors (in Angstrom^-1):
  | Reciprocal lattice vector 1:  1.353242 -0.000035  0.000000
  | Reciprocal lattice vector 2: -0.000035  1.353235  0.000000
  | Reciprocal lattice vector 3:  0.000000  0.000000  2.113499
  | Unit cell volume                               :   0.640898E+02  Angstrom^3

  Fractional coordinates:
                         L1                L2                L3
       atom_frac        -0.00000001        0.00000001        0.00000000  Ti
       atom_frac         0.50000000        0.50000000        0.50000000  Ti
       atom_frac         0.30555823        0.30556717        0.00000000  O1
       atom_frac         0.69444177        0.69443283        0.00000000  O
       atom_frac         0.19444622        0.80556274        0.50000000  O
       atom_frac         0.80555378        0.19443725        0.50000000  O

  Initial moments and charges:
  |  Atom   Moment         Charge        Species
  |     1   0.000000E+00   0.000000E+00   Ti
  |     2   0.000000E+00   0.000000E+00   Ti
  |     3   0.000000E+00   0.000000E+00   O1
  |     4   0.000000E+00   0.000000E+00   O
  |     5   0.000000E+00   0.000000E+00   O
  |     6   0.000000E+00   0.000000E+00   O

  Slab Identifier: This seems to be a bulk system.
 
  Finished reading input file 'geometry.in'.
 

 
  Consistency checks for stacksize environment parameter are next.
 
  | Maximum stacksize for task 0: unlimited
  | Maximum stacksize for task 1: unlimited
  | Maximum stacksize for task 2: unlimited
  | Maximum stacksize for task 3: unlimited
  | Maximum stacksize for task 4: unlimited
  | Maximum stacksize for task 5: unlimited
  | Maximum stacksize for task 6: unlimited
  | Maximum stacksize for task 7: unlimited
  | Maximum stacksize for task 8: unlimited
  | Maximum stacksize for task 9: unlimited
  | Maximum stacksize for task 10: unlimited
  | Maximum stacksize for task 11: unlimited
  | Maximum stacksize for task 12: unlimited
  | Maximum stacksize for task 13: unlimited
  | Maximum stacksize for task 14: unlimited
  | Maximum stacksize for task 15: unlimited
  | Maximum stacksize for task 16: unlimited
  | Maximum stacksize for task 17: unlimited
  | Maximum stacksize for task 18: unlimited
  | Maximum stacksize for task 19: unlimited
  | Maximum stacksize for task 20: unlimited
  | Maximum stacksize for task 21: unlimited
  | Maximum stacksize for task 22: unlimited
  | Maximum stacksize for task 23: unlimited
  | Maximum stacksize for task 24: unlimited
  | Maximum stacksize for task 25: unlimited
  | Maximum stacksize for task 26: unlimited
  | Maximum stacksize for task 27: unlimited
  | Maximum stacksize for task 28: unlimited
  | Maximum stacksize for task 29: unlimited
  | Maximum stacksize for task 30: unlimited
  | Maximum stacksize for task 31: unlimited
  | Current stacksize for task 0: unlimited
  | Current stacksize for task 1: unlimited
  | Current stacksize for task 2: unlimited
  | Current stacksize for task 3: unlimited
  | Current stacksize for task 4: unlimited
  | Current stacksize for task 5: unlimited
  | Current stacksize for task 6: unlimited
  | Current stacksize for task 7: unlimited
  | Current stacksize for task 8: unlimited
  | Current stacksize for task 9: unlimited
  | Current stacksize for task 10: unlimited
  | Current stacksize for task 11: unlimited
  | Current stacksize for task 12: unlimited
  | Current stacksize for task 13: unlimited
  | Current stacksize for task 14: unlimited
  | Current stacksize for task 15: unlimited
  | Current stacksize for task 16: unlimited
  | Current stacksize for task 17: unlimited
  | Current stacksize for task 18: unlimited
  | Current stacksize for task 19: unlimited
  | Current stacksize for task 20: unlimited
  | Current stacksize for task 21: unlimited
  | Current stacksize for task 22: unlimited
  | Current stacksize for task 23: unlimited
  | Current stacksize for task 24: unlimited
  | Current stacksize for task 25: unlimited
  | Current stacksize for task 26: unlimited
  | Current stacksize for task 27: unlimited
  | Current stacksize for task 28: unlimited
  | Current stacksize for task 29: unlimited
  | Current stacksize for task 30: unlimited
  | Current stacksize for task 31: unlimited
 
  Consistency checks for the contents of control.in are next.
 
  MPI_IN_PLACE appears to work with this MPI implementation.
  | Keeping use_mpi_in_place .true. (see manual).
  Target number of points in a grid batch is not set. Defaulting to  100
  Method for grid partitioning is not set. Defaulting to parallel hash+maxmin partitioning.
  Batch size limit is not set. Defaulting to    200
  By default, will store active basis functions for each batch.
  If in need of memory, prune_basis_once .false. can be used to disable this option.
  communication_type for Hartree potential was not specified.
  Defaulting to calc_hartree .
  Defaulting to Pulay charge density mixer.
  Pulay mixer: Number of relevant iterations not set.
  Defaulting to    8 iterations.
  Pulay mixer: Number of initial linear mixing iterations not set.
  Defaulting to    0 iterations.
  Work space size for distributed Hartree potential not set.
  Defaulting to   0.200000E+03 MB.
  Mixing parameter for charge density mixing has not been set.
  Using default: charge_mix_param =     0.0500.
  The mixing parameter will be adjusted in iteration number     2 of each s.c.f. cycle (i.e., each geometry step).
  Mixing parameter for spin density mixing has not been set.
  Using charge_mix_param as default:     0.0500.
  Algorithm-dependent basis array size parameters:
  | n_max_pulay                         :        8
  Maximum number of self-consistency iterations not provided.
  Presetting  1000 iterations.
  Presetting      1001 iterations before the initial mixing cycle
  is restarted anyway using the sc_init_iter criterion / keyword.
  Presetting a factor      1.000 between actual scf density residual
  and density convergence criterion sc_accuracy_rho below which sc_init_iter
  takes no effect.
 * No s.c.f. convergence criteria (sc_accuracy_*) were provided in control.in.
 * The run will proceed with a reasonable default guess, but please check whether.
 * the s.c.f. cycles seem to take too much or too little time.
  Calculation of forces was not defined in control.in. No forces will be calculated.
  Geometry relaxation not requested: no relaxation will be performed.
 * Notice: The s.c.f. convergence criterion sc_accuracy_rho was not provided.
 * We used to stop in this case, and ask the user to provide reasonable
 * scf convergence criteria. However, this led some users to employ criteria
 * that led to extremely long run times, e.g., for simple relaxation.
 * We now preset a default value for sc_accuracy_rho if it is not set.
 * You may still wish to check if this setting is too tight or too loose for your needs.
 * Based on n_atoms and forces and force-correction status, FHI-aims chose sc_accuracy_rho =  0.100000E-05 .
  No accuracy limit for integral partition fn. given. Defaulting to  0.1000E-14.
  No threshold value for u(r) in integrations given. Defaulting to  0.1000E-05.
  No occupation type (smearing scheme) given. Defaulting to Gaussian broadening, width =  0.1000E-01 eV.
  The width will be adjusted in iteration number     2 of each s.c.f. cycle (i.e., each geometry step).
  No accuracy for occupation numbers given. Defaulting to  0.1000E-12.
  No threshold value for occupation numbers given. Defaulting to  0.0000E+00.
  No accuracy for fermi level given. Defaulting to  0.1000E-19.
  Maximum # of iterations to find E_F not set. Defaulting to  200.
  Will not use alltoall communication since running on < 1024 CPUs.
  Threshold for basis singularities not set.
  Default threshold for basis singularities:  0.1000E-04
  partition_type (choice of integration weights) for integrals was not specified.
  | Using a version of the partition function of Stratmann and coworkers ('stratmann_sparse').
  | At each grid point, the set of atoms used to build the partition table is smoothly restricted to
  | only those atoms whose free-atom density would be non-zero at that grid point.
  Partitioning for Hartree potential was not defined. Using partition_type for integrals.
  | Adjusted default value of keyword multip_moments_threshold to:       0.10000000E-11
  | This value may affect high angular momentum components of the Hartree potential in periodic systems.
  No q(lm)/r^(l+1) cutoff set for long-range Hartree potential.
  | Using default value of  0.100000E-09 .
  | Verify using the multipole_threshold keyword.
  Defaulting to new monopole extrapolation.
  Density update method: automatic selection selected.
  Using density matrix based charge density update.
  Using density matrix based charge density update.
  Using packed matrix style: index .
  Defaulting to use time-reversal symmetry for k-point grid.
  Charge integration errors on the 3D integration grid will be compensated
  by explicit normalization and distribution of residual charges.
  Use the "compensate_multipole_errors" flag to change this behaviour.
  Set 'collect_eigenvectors' to be '.true.' for all serial calculations. This is mandatory.
  Set 'collect_eigenvectors' to be '.true.' for KS_method lapack_fast and serial.
  Found potential conflicts with setting 'use_local_index' for this calculation. Will not set it.
 
  Consistency checks for the contents of geometry.in are next.
 

  Range separation radius for Ewald summation (hartree_convergence_parameter):      3.05697894 bohr.
  Number of empty states per atom not set in control.in - providing a guess from actual geometry.
  | Total number of empty states used during s.c.f. cycle:       23
  If you use a very high smearing, use empty_states (per atom!) in control.in to increase this value.

  Structure-dependent array size parameters: 
  | Number of distinct atom types in initial rho :        3
  | Maximum number of distinct radial functions  :       39
  | Maximum number of basis functions            :      174
  | Number of Kohn-Sham states (occupied + empty):       61
------------------------------------------------------------
  After read_input_data [GB]:    922.97

  Performing system and environment tests:
  *** Environment variable OMP_NUM_THREADS is not set
  *** For performance reasons you might want to set it to 1
  | Checking for ScaLAPACK...
  | Testing pdtran()...
  | All pdtran() tests passed.
  After prepare_system [GB]:    922.89

------------------------------------------------------------
          Preparing all fixed parts of the calculation.
------------------------------------------------------------
  Determining machine precision:
    2.225073858507201E-308
  Setting up grids for atomic and cluster calculations.

  Creating wave function, potential, and density for free atoms.
  Runtime choices for atomic solver:
  | atomic solver xc        : PBE
  | compute density gradient: 1
  | compute kinetic density : F

  Species: Ti

  List of occupied orbitals and eigenvalues:
    n    l              occ      energy [Ha]    energy [eV]
    1    0           2.0000      -179.959082     -4896.9358
    2    0           2.0000       -19.727662      -536.8170
    3    0           2.0000        -2.283029       -62.1244
    4    0           2.0000        -0.148384        -4.0377
    2    1           6.0000       -16.317278      -444.0157
    3    1           6.0000        -1.409348       -38.3503
    3    2           2.0000        -0.139340        -3.7916


  Species: O

  List of occupied orbitals and eigenvalues:
    n    l              occ      energy [Ha]    energy [eV]
    1    0           2.0000       -18.926989      -515.0296
    2    0           2.0000        -0.880247       -23.9527
    2    1           4.0000        -0.331514        -9.0210


  Species: O1

  List of occupied orbitals and eigenvalues:
    n    l              occ      energy [Ha]    energy [eV]
    1    0           2.0000       -18.927378      -515.0401
    2    0           2.0000        -0.880539       -23.9607
    2    1           4.0000        -0.331811        -9.0290

  Spin-polarized or charged system:
  Charge density initialized according to selected moments and charges.

  Creating spin-polarized density from free atoms.

  Species: Ti
  Charge:   0.000000
  Moment:   0.000000

  List of occupied orbitals and eigenvalues:
    n    l      energy [Ha]    energy [eV]    occupation
  Spin-up
    1    0      -179.959082     -4896.9358     1.00000000
    2    0       -19.727662      -536.8170     1.00000000
    3    0        -2.283029       -62.1244     1.00000000
    4    0        -0.148384        -4.0377     1.00000000
    2    1       -16.317278      -444.0157     3.00000000
    3    1        -1.409348       -38.3503     3.00000000
    3    2        -0.139340        -3.7916     1.00000000
  Spin-down
    1    0      -179.959082     -4896.9358     1.00000000
    2    0       -19.727662      -536.8170     1.00000000
    3    0        -2.283029       -62.1244     1.00000000
    4    0        -0.148384        -4.0377     1.00000000
    2    1       -16.317278      -444.0157     3.00000000
    3    1        -1.409348       -38.3503     3.00000000
    3    2        -0.139340        -3.7916     1.00000000


  Species: O1
  Charge:   0.000000
  Moment:   0.000000

  List of occupied orbitals and eigenvalues:
    n    l      energy [Ha]    energy [eV]    occupation
  Spin-up
    1    0       -18.927378      -515.0401     1.00000000
    2    0        -0.880539       -23.9607     1.00000000
    2    1        -0.331811        -9.0290     2.00000000
  Spin-down
    1    0       -18.927378      -515.0401     1.00000000
    2    0        -0.880539       -23.9607     1.00000000
    2    1        -0.331811        -9.0290     2.00000000


  Species: O
  Charge:   0.000000
  Moment:   0.000000

  List of occupied orbitals and eigenvalues:
    n    l      energy [Ha]    energy [eV]    occupation
  Spin-up
    1    0       -18.926989      -515.0296     1.00000000
    2    0        -0.880247       -23.9527     1.00000000
    2    1        -0.331514        -9.0210     2.00000000
  Spin-down
    1    0       -18.926989      -515.0296     1.00000000
    2    0        -0.880247       -23.9527     1.00000000
    2    1        -0.331514        -9.0210     2.00000000


  Adding cutoff potential to free-atom effective potential.
  Creating fixed part of basis set: Ionic, confined, hydrogenic.
 
  Ti                   ion:

  List of free ionic orbitals and eigenvalues:
    n    l      energy [Ha]    energy [eV]
    1    0      -180.819616     -4920.3521
    2    0       -20.608761      -560.7929
    3    0        -3.115729       -84.7833
    4    0        -0.697188       -18.9715
    2    1       -17.196209      -467.9327
    3    1        -2.231296       -60.7167
    3    2        -0.911363       -24.7995


  List of ionic basis orbitals and eigenvalues:
    n    l      energy [Ha]    energy [eV]    outer radius [A]
    4    1        -0.517739       -14.0884       4.592117
    4    0        -0.696824       -18.9615       4.536321

 
  Ti                   hydrogenic:
 
  List of hydrogenic basis orbitals: 
    n    l      effective z      eigenvalue [eV]  inner max. [A]     outer max. [A]     outer radius [A]   
    4    3         8.000000       -54.4222           1.059019           1.059019           4.267343
    3    2         2.700000       -10.7798           1.726925           1.726925           4.592117
 
 
  O                    hydrogenic:
 
  List of hydrogenic basis orbitals: 
    n    l      effective z      eigenvalue [eV]  inner max. [A]     outer max. [A]     outer radius [A]   
    2    1         1.800000       -10.9749           1.164242           1.164242           4.578029
    3    2         7.600000       -87.3180           0.624125           0.624125           3.251020
    3    0         6.400000       -61.9207           0.061167           1.081902           4.001998
 
 
  O1                   ion:

  List of free ionic orbitals and eigenvalues:
    n    l      energy [Ha]    energy [eV]
    1    0       -20.485570      -557.4407
    2    0        -2.134830       -58.0917
    2    1        -1.577627       -42.9294


  List of ionic basis orbitals and eigenvalues:
    n    l      energy [Ha]    energy [eV]    outer radius [A]
    2    1        -1.577621       -42.9293       3.541477

 
  O1                   hydrogenic:
 
  List of hydrogenic basis orbitals: 
    n    l      effective z      eigenvalue [eV]  inner max. [A]     outer max. [A]     outer radius [A]   
    2    1         1.800000       -11.0118           1.178562           1.178562           5.432602
    3    2         7.600000       -87.3182           0.624125           0.624125           3.541477
    3    0         6.400000       -61.9209           0.061167           1.081902           4.306578
    4    3        11.600000      -114.4238           0.731631           0.731631           3.585037
    3    1         6.200000       -58.1113           0.255680           1.030270           4.306578
    3    2         5.600000       -47.4081           0.847233           0.847233           4.413171
    5    4        17.600000      -168.5799           0.749740           0.749740           3.372465
    1    0         0.750000        -7.6499           0.705284           0.705284           5.366593
    4    3        10.800000       -99.1854           0.787313           0.787313           3.764702
    4    2         4.700000       -18.6841           0.758962           2.365807           5.499423
    2    0         6.800000      -157.2818           0.059689           0.406863           2.739620
    1    0        12.000000     -1959.2197           0.043971           0.043971           0.816724
    1    0        10.000000     -1360.5692           0.052821           0.052821           0.981101
    1    0         6.000000      -489.8049           0.088266           0.088266           1.561224
    2    0        10.000000      -340.1423           0.040365           0.278524           2.093567
    2    1         8.000000      -217.6911           0.265231           0.265231           2.365807
    2    1         6.000000      -122.4512           0.351348           0.351348           2.841960
    3    2         8.000000       -96.7515           0.594340           0.594340           3.455938
 
  Creating atomic-like basis functions for current effective potential.

  Species Ti                  :

  List of atomic basis orbitals and eigenvalues:
    n    l      energy [Ha]    energy [eV]    outer radius [A]
    1    0      -179.959082     -4896.9358       0.490254
    2    0       -19.727662      -536.8170       1.491292
    3    0        -2.283029       -62.1244       4.014314
    4    0        -0.148384        -4.0377       4.592117
    2    1       -16.317278      -444.0157       1.585290
    3    1        -1.409348       -38.3503       4.267343
    3    2        -0.139340        -3.7916       4.536321


  Species O                   :

  List of atomic basis orbitals and eigenvalues:
    n    l      energy [Ha]    energy [eV]    outer radius [A]
    1    0       -18.926989      -515.0296       1.415765
    2    0        -0.880247       -23.9527       4.413171
    2    1        -0.331514        -9.0210       4.522403


  Species O1                  :

  List of atomic basis orbitals and eigenvalues:
    n    l      energy [Ha]    energy [eV]    outer radius [A]
    1    0       -18.927378      -515.0401       1.415765
    2    0        -0.880539       -23.9607       5.048385
    2    1        -0.331811        -9.0290       5.301386

  Assembling full basis from fixed parts.
  | Species Ti :   atomic orbital   1 s accepted.
  | Species Ti :   atomic orbital   2 s accepted.
  | Species Ti :   atomic orbital   3 s accepted.
  | Species Ti :    ionic orbital   4 s accepted.
  | Species Ti :   atomic orbital   4 s accepted.
  | Species Ti :   atomic orbital   2 p accepted.
  | Species Ti :   atomic orbital   3 p accepted.
  | Species Ti :    ionic orbital   4 p accepted.
  | Species Ti :   atomic orbital   3 d accepted.
  | Species Ti :    hydro orbital   3 d accepted.
  | Species Ti :    hydro orbital   4 f accepted.
  | Species O :   atomic orbital   1 s accepted.
  | Species O :    hydro orbital   3 s accepted.
  | Species O :   atomic orbital   2 s accepted.
  | Species O :   atomic orbital   2 p accepted.
  | Species O :    hydro orbital   2 p accepted.
  | Species O :    hydro orbital   3 d accepted.
  | Species O1 :    hydro orbital   1 s accepted.
  | Species O1 :    hydro orbital   1 s accepted.
  | Species O1 :   atomic orbital   1 s accepted.
  | Species O1 :    hydro orbital   1 s accepted.
  | Species O1 :    hydro orbital   2 s accepted.
  | Species O1 :    hydro orbital   2 s accepted.
  | Species O1 :    hydro orbital   3 s accepted.
  | Species O1 :   atomic orbital   2 s accepted.
  | Species O1 :    hydro orbital   1 s accepted.
  | Species O1 :    hydro orbital   2 p accepted.
  | Species O1 :    hydro orbital   2 p accepted.
  | Species O1 :    ionic orbital   2 p accepted.
  | Species O1 :    hydro orbital   3 p accepted.
  | Species O1 :   atomic orbital   2 p accepted.
  | Species O1 :    hydro orbital   2 p accepted.
  | Species O1 :    hydro orbital   3 d accepted.
  | Species O1 :    hydro orbital   3 d accepted.
  | Species O1 :    hydro orbital   3 d accepted.
  | Species O1 :    hydro orbital   4 d accepted.
  | Species O1 :    hydro orbital   4 f accepted.
  | Species O1 :    hydro orbital   4 f accepted.
  | Species O1 :    hydro orbital   5 g accepted.
 
  Basis size parameters after reduction:
  | Total number of radial functions:       39
  | Total number of basis functions :      174
 
  Per-task memory consumption for arrays in subroutine allocate_ext:
  |          10.363164MB.
  Testing on-site integration grid accuracy.
  |  Species  Function  <phi|h_atom|phi> (log., in eV)  <phi|h_atom|phi> (rad., in eV)
           1        1              -4896.9357674450              -4896.9322838106
           1        2               -536.8170048508               -536.8169722776
           1        3                -62.1243896260                -62.1243889401
           1        4                 -3.2653235630                 -3.2692838824
           1        5                  6.7987747276                  6.5460721871 ***
           1        6               -444.0157161949               -444.0157165643
           1        7                -38.3503235548                -38.3503234985
           1        8                  0.2923930877                  0.2745948114
           1        9                 -3.7933400649                 -3.7959244171
           1       10                  6.3288803616                  6.2510614935 ***
           1       11                 27.8451455747                 27.8452636415
           2       12               -515.0295626295               -515.0294562869
           2       13                 15.1698434419                 15.1699322205
           2       14                -21.6038822678                -21.6039118108
           2       15                 -9.0211123393                 -9.0212703513
           2       16                  8.3047696391                  8.2854840999
           2       17                 45.8428042125                 45.8427461223
           3       18               -272.9322507263               -272.9201921991
           3       19               1665.9089384428               1665.9689460231 ***
           3       20               2095.2037268945               2095.2740317228 ***
           3       21               3047.3679718515               3047.0126722257 ***
           3       22               3234.6000205573               3231.5687072350 ***
           3       23               2428.4660356492               2422.2375592442 ***
           3       24                896.7802862158                893.3913916184 ***
           3       25               3128.2108268826               3108.2674940926 ***
           3       26                 71.8616615187                 71.1575836879 ***
           3       27                 15.4122562036                 15.4122564509
           3       28                101.7989356251                101.7989355629
           3       29                121.1064459338                121.1064460850
           3       30                271.5759585347                271.5759823152
           3       31                159.3966255928                159.3962927971
           3       32                153.6473243407                153.6504704040
           3       33                 50.7421815376                 50.7421815945
           3       34                 88.5010368311                 88.5010331057
           3       35                 82.9872957917                 82.9873669217
           3       36                 36.7418806245                 36.7419113217
           3       37                 85.4133898762                 85.4133899074
           3       38                115.1018427582                115.1018451832
           3       39                142.1023296234                142.1023296272
 * Note: Onsite integrals marked "***" above are less accurate than
 * onsite_accuracy_threshold =    0.03000 eV. Usually, this is harmless.
 * When in doubt, tighten the "radial" and/or "radial_multiplier" flags to check.

  Task       0:*** pseudo_inverse, for evaluate_coeff_d: error of  5.68E-14; eps:  1.00E-15
  Preparing densities etc. for the partition functions (integrals / Hartree potential).

  Preparations completed.
  max(cpu_time)          :      0.661 s.
  Wall clock time (cpu1) :      0.659 s.
------------------------------------------------------------
  After prepare_scf [GB]:    921.01

  Initializing index lists of integration centers etc. from given atomic structure:
  Mapping all atomic coordinates to central unit cell.

  Initializing the k-points
  Using symmetry for reducing the k-points
  | k-points reduced from:      768 to      388
  | Number of k-points                             :       388
  The eigenvectors in the calculations are COMPLEX.
  | K-points in task   0:        12
  | K-points in task   1:        13
  | K-points in task   2:        13
  | K-points in task   3:        13
  | K-points in task   4:        13
  | K-points in task   5:        12
  | K-points in task   6:        12
  | K-points in task   7:        12
  | K-points in task   8:        12
  | K-points in task   9:        12
  | K-points in task  10:        12
  | K-points in task  11:        12
  | K-points in task  12:        12
  | K-points in task  13:        12
  | K-points in task  14:        12
  | K-points in task  15:        12
  | K-points in task  16:        12
  | K-points in task  17:        12
  | K-points in task  18:        12
  | K-points in task  19:        12
  | K-points in task  20:        12
  | K-points in task  21:        12
  | K-points in task  22:        12
  | K-points in task  23:        12
  | K-points in task  24:        12
  | K-points in task  25:        12
  | K-points in task  26:        12
  | K-points in task  27:        12
  | K-points in task  28:        12
  | K-points in task  29:        12
  | K-points in task  30:        12
  | K-points in task  31:        12
  | k-point: 1 at     0.000000    0.000000    0.000000  , weight:   0.00130208
  | k-point: 2 at     0.000000    0.000000    0.083333  , weight:   0.00260417
  | k-point: 3 at     0.000000    0.000000    0.250000  , weight:   0.00260417
  | k-point: 4 at     0.000000    0.000000    0.333333  , weight:   0.00260417
  | k-point: 5 at     0.000000    0.000000    0.416667  , weight:   0.00260417
  | k-point: 6 at     0.000000    0.000000    0.500000  , weight:   0.00130208
  | k-point: 7 at     0.000000    0.000000    0.833333  , weight:   0.00260417
  | k-point: 8 at     0.000000    0.125000    0.000000  , weight:   0.00260417
  | k-point: 9 at     0.000000    0.125000    0.083333  , weight:   0.00260417
  | k-point: 10 at     0.000000    0.125000    0.166667  , weight:   0.00260417
  | k-point: 11 at     0.000000    0.125000    0.333333  , weight:   0.00260417
  | k-point: 12 at     0.000000    0.125000    0.416667  , weight:   0.00260417
  | k-point: 13 at     0.000000    0.125000    0.500000  , weight:   0.00260417
  | k-point: 14 at     0.000000    0.125000    0.666667  , weight:   0.00260417
  | k-point: 15 at     0.000000    0.125000    0.750000  , weight:   0.00260417
  | k-point: 16 at     0.000000    0.125000    0.833333  , weight:   0.00260417
  | k-point: 17 at     0.000000    0.250000    0.000000  , weight:   0.00260417
  | k-point: 18 at     0.000000    0.250000    0.083333  , weight:   0.00260417
  | k-point: 19 at     0.000000    0.250000    0.166667  , weight:   0.00260417
  | k-point: 20 at     0.000000    0.250000    0.333333  , weight:   0.00260417
  | k-point: 21 at     0.000000    0.250000    0.416667  , weight:   0.00260417
  | k-point: 22 at     0.000000    0.250000    0.500000  , weight:   0.00260417
  | k-point: 23 at     0.000000    0.250000    0.666667  , weight:   0.00260417
  | k-point: 24 at     0.000000    0.250000    0.750000  , weight:   0.00260417
  | k-point: 25 at     0.000000    0.250000    0.833333  , weight:   0.00260417
  | k-point: 26 at     0.000000    0.375000    0.000000  , weight:   0.00260417
  | k-point: 27 at     0.000000    0.375000    0.083333  , weight:   0.00260417
  | k-point: 28 at     0.000000    0.375000    0.166667  , weight:   0.00260417
  | k-point: 29 at     0.000000    0.375000    0.333333  , weight:   0.00260417
  | k-point: 30 at     0.000000    0.375000    0.416667  , weight:   0.00260417
  | k-point: 31 at     0.000000    0.375000    0.500000  , weight:   0.00260417
  | k-point: 32 at     0.000000    0.375000    0.666667  , weight:   0.00260417
  | k-point: 33 at     0.000000    0.375000    0.750000  , weight:   0.00260417
  | k-point: 34 at     0.000000    0.375000    0.833333  , weight:   0.00260417
  | k-point: 35 at     0.000000    0.500000    0.000000  , weight:   0.00130208
  | k-point: 36 at     0.000000    0.500000    0.083333  , weight:   0.00260417
  | k-point: 37 at     0.000000    0.500000    0.166667  , weight:   0.00260417
  | k-point: 38 at     0.000000    0.500000    0.333333  , weight:   0.00260417
  | k-point: 39 at     0.000000    0.500000    0.416667  , weight:   0.00260417
  | k-point: 40 at     0.000000    0.500000    0.500000  , weight:   0.00130208
  | k-point: 41 at     0.000000    0.500000    0.750000  , weight:   0.00260417
  | k-point: 42 at     0.000000    0.625000    0.083333  , weight:   0.00260417
  | k-point: 43 at     0.000000    0.625000    0.416667  , weight:   0.00260417
  | k-point: 44 at     0.000000    0.625000    0.750000  , weight:   0.00260417
  | k-point: 45 at     0.000000    0.750000    0.083333  , weight:   0.00260417
  | k-point: 46 at     0.000000    0.750000    0.416667  , weight:   0.00260417
  | k-point: 47 at     0.000000    0.750000    0.750000  , weight:   0.00260417
  | k-point: 48 at     0.000000    0.875000    0.083333  , weight:   0.00260417
  | k-point: 49 at     0.000000    0.875000    0.416667  , weight:   0.00260417
  | k-point: 50 at     0.000000    0.875000    0.750000  , weight:   0.00260417
  | k-point: 51 at     0.125000    0.000000    0.000000  , weight:   0.00260417
  | k-point: 52 at     0.125000    0.000000    0.166667  , weight:   0.00260417
  | k-point: 53 at     0.125000    0.000000    0.250000  , weight:   0.00260417
  | k-point: 54 at     0.125000    0.000000    0.333333  , weight:   0.00260417
  | k-point: 55 at     0.125000    0.000000    0.500000  , weight:   0.00260417
  | k-point: 56 at     0.125000    0.000000    0.583333  , weight:   0.00260417
  | k-point: 57 at     0.125000    0.000000    0.666667  , weight:   0.00260417
  | k-point: 58 at     0.125000    0.000000    0.833333  , weight:   0.00260417
  | k-point: 59 at     0.125000    0.000000    0.916667  , weight:   0.00260417
  | k-point: 60 at     0.125000    0.125000    0.000000  , weight:   0.00260417
  | k-point: 61 at     0.125000    0.125000    0.166667  , weight:   0.00260417
  | k-point: 62 at     0.125000    0.125000    0.250000  , weight:   0.00260417
  | k-point: 63 at     0.125000    0.125000    0.333333  , weight:   0.00260417
  | k-point: 64 at     0.125000    0.125000    0.500000  , weight:   0.00260417
  | k-point: 65 at     0.125000    0.125000    0.583333  , weight:   0.00260417
  | k-point: 66 at     0.125000    0.125000    0.666667  , weight:   0.00260417
  | k-point: 67 at     0.125000    0.125000    0.833333  , weight:   0.00260417
  | k-point: 68 at     0.125000    0.125000    0.916667  , weight:   0.00260417
  | k-point: 69 at     0.125000    0.250000    0.000000  , weight:   0.00260417
  | k-point: 70 at     0.125000    0.250000    0.166667  , weight:   0.00260417
  | k-point: 71 at     0.125000    0.250000    0.250000  , weight:   0.00260417
  | k-point: 72 at     0.125000    0.250000    0.333333  , weight:   0.00260417
  | k-point: 73 at     0.125000    0.250000    0.500000  , weight:   0.00260417
  | k-point: 74 at     0.125000    0.250000    0.583333  , weight:   0.00260417
  | k-point: 75 at     0.125000    0.250000    0.666667  , weight:   0.00260417
  | k-point: 76 at     0.125000    0.250000    0.833333  , weight:   0.00260417
  | k-point: 77 at     0.125000    0.250000    0.916667  , weight:   0.00260417
  | k-point: 78 at     0.125000    0.375000    0.000000  , weight:   0.00260417
  | k-point: 79 at     0.125000    0.375000    0.166667  , weight:   0.00260417
  | k-point: 80 at     0.125000    0.375000    0.250000  , weight:   0.00260417
  | k-point: 81 at     0.125000    0.375000    0.333333  , weight:   0.00260417
  | k-point: 82 at     0.125000    0.375000    0.500000  , weight:   0.00260417
  | k-point: 83 at     0.125000    0.375000    0.583333  , weight:   0.00260417
  | k-point: 84 at     0.125000    0.375000    0.666667  , weight:   0.00260417
  | k-point: 85 at     0.125000    0.375000    0.833333  , weight:   0.00260417
  | k-point: 86 at     0.125000    0.375000    0.916667  , weight:   0.00260417
  | k-point: 87 at     0.125000    0.500000    0.000000  , weight:   0.00260417
  | k-point: 88 at     0.125000    0.500000    0.166667  , weight:   0.00260417
  | k-point: 89 at     0.125000    0.500000    0.250000  , weight:   0.00260417
  | k-point: 90 at     0.125000    0.500000    0.333333  , weight:   0.00260417
  | k-point: 91 at     0.125000    0.500000    0.500000  , weight:   0.00260417
  | k-point: 92 at     0.125000    0.500000    0.583333  , weight:   0.00260417
  | k-point: 93 at     0.125000    0.500000    0.666667  , weight:   0.00260417
  | k-point: 94 at     0.125000    0.500000    0.833333  , weight:   0.00260417
  | k-point: 95 at     0.125000    0.500000    0.916667  , weight:   0.00260417
  | k-point: 96 at     0.125000    0.625000    0.000000  , weight:   0.00260417
  | k-point: 97 at     0.125000    0.625000    0.166667  , weight:   0.00260417
  | k-point: 98 at     0.125000    0.625000    0.250000  , weight:   0.00260417
  | k-point: 99 at     0.125000    0.625000    0.333333  , weight:   0.00260417
  | k-point: 100 at     0.125000    0.625000    0.500000  , weight:   0.00260417
  | k-point: 101 at     0.125000    0.625000    0.583333  , weight:   0.00260417
  | k-point: 102 at     0.125000    0.625000    0.666667  , weight:   0.00260417
  | k-point: 103 at     0.125000    0.625000    0.833333  , weight:   0.00260417
  | k-point: 104 at     0.125000    0.625000    0.916667  , weight:   0.00260417
  | k-point: 105 at     0.125000    0.750000    0.000000  , weight:   0.00260417
  | k-point: 106 at     0.125000    0.750000    0.166667  , weight:   0.00260417
  | k-point: 107 at     0.125000    0.750000    0.250000  , weight:   0.00260417
  | k-point: 108 at     0.125000    0.750000    0.333333  , weight:   0.00260417
  | k-point: 109 at     0.125000    0.750000    0.500000  , weight:   0.00260417
  | k-point: 110 at     0.125000    0.750000    0.583333  , weight:   0.00260417
  | k-point: 111 at     0.125000    0.750000    0.666667  , weight:   0.00260417
  | k-point: 112 at     0.125000    0.750000    0.833333  , weight:   0.00260417
  | k-point: 113 at     0.125000    0.750000    0.916667  , weight:   0.00260417
  | k-point: 114 at     0.125000    0.875000    0.000000  , weight:   0.00260417
  | k-point: 115 at     0.125000    0.875000    0.166667  , weight:   0.00260417
  | k-point: 116 at     0.125000    0.875000    0.250000  , weight:   0.00260417
  | k-point: 117 at     0.125000    0.875000    0.333333  , weight:   0.00260417
  | k-point: 118 at     0.125000    0.875000    0.500000  , weight:   0.00260417
  | k-point: 119 at     0.125000    0.875000    0.583333  , weight:   0.00260417
  | k-point: 120 at     0.125000    0.875000    0.666667  , weight:   0.00260417
  | k-point: 121 at     0.125000    0.875000    0.833333  , weight:   0.00260417
  | k-point: 122 at     0.125000    0.875000    0.916667  , weight:   0.00260417
  | k-point: 123 at     0.250000    0.000000    0.000000  , weight:   0.00260417
  | k-point: 124 at     0.250000    0.000000    0.166667  , weight:   0.00260417
  | k-point: 125 at     0.250000    0.000000    0.250000  , weight:   0.00260417
  | k-point: 126 at     0.250000    0.000000    0.333333  , weight:   0.00260417
  | k-point: 127 at     0.250000    0.000000    0.500000  , weight:   0.00260417
  | k-point: 128 at     0.250000    0.000000    0.583333  , weight:   0.00260417
  | k-point: 129 at     0.250000    0.000000    0.666667  , weight:   0.00260417
  | k-point: 130 at     0.250000    0.000000    0.833333  , weight:   0.00260417
  | k-point: 131 at     0.250000    0.000000    0.916667  , weight:   0.00260417
  | k-point: 132 at     0.250000    0.125000    0.000000  , weight:   0.00260417
  | k-point: 133 at     0.250000    0.125000    0.166667  , weight:   0.00260417
  | k-point: 134 at     0.250000    0.125000    0.250000  , weight:   0.00260417
  | k-point: 135 at     0.250000    0.125000    0.333333  , weight:   0.00260417
  | k-point: 136 at     0.250000    0.125000    0.500000  , weight:   0.00260417
  | k-point: 137 at     0.250000    0.125000    0.583333  , weight:   0.00260417
  | k-point: 138 at     0.250000    0.125000    0.666667  , weight:   0.00260417
  | k-point: 139 at     0.250000    0.125000    0.833333  , weight:   0.00260417
  | k-point: 140 at     0.250000    0.125000    0.916667  , weight:   0.00260417
  | k-point: 141 at     0.250000    0.250000    0.000000  , weight:   0.00260417
  | k-point: 142 at     0.250000    0.250000    0.166667  , weight:   0.00260417
  | k-point: 143 at     0.250000    0.250000    0.250000  , weight:   0.00260417
  | k-point: 144 at     0.250000    0.250000    0.333333  , weight:   0.00260417
  | k-point: 145 at     0.250000    0.250000    0.500000  , weight:   0.00260417
  | k-point: 146 at     0.250000    0.250000    0.583333  , weight:   0.00260417
  | k-point: 147 at     0.250000    0.250000    0.666667  , weight:   0.00260417
  | k-point: 148 at     0.250000    0.250000    0.833333  , weight:   0.00260417
  | k-point: 149 at     0.250000    0.250000    0.916667  , weight:   0.00260417
  | k-point: 150 at     0.250000    0.375000    0.000000  , weight:   0.00260417
  | k-point: 151 at     0.250000    0.375000    0.166667  , weight:   0.00260417
  | k-point: 152 at     0.250000    0.375000    0.250000  , weight:   0.00260417
  | k-point: 153 at     0.250000    0.375000    0.333333  , weight:   0.00260417
  | k-point: 154 at     0.250000    0.375000    0.500000  , weight:   0.00260417
  | k-point: 155 at     0.250000    0.375000    0.583333  , weight:   0.00260417
  | k-point: 156 at     0.250000    0.375000    0.666667  , weight:   0.00260417
  | k-point: 157 at     0.250000    0.375000    0.833333  , weight:   0.00260417
  | k-point: 158 at     0.250000    0.375000    0.916667  , weight:   0.00260417
  | k-point: 159 at     0.250000    0.500000    0.000000  , weight:   0.00260417
  | k-point: 160 at     0.250000    0.500000    0.166667  , weight:   0.00260417
  | k-point: 161 at     0.250000    0.500000    0.250000  , weight:   0.00260417
  | k-point: 162 at     0.250000    0.500000    0.333333  , weight:   0.00260417
  | k-point: 163 at     0.250000    0.500000    0.500000  , weight:   0.00260417
  | k-point: 164 at     0.250000    0.500000    0.583333  , weight:   0.00260417
  | k-point: 165 at     0.250000    0.500000    0.666667  , weight:   0.00260417
  | k-point: 166 at     0.250000    0.500000    0.833333  , weight:   0.00260417
  | k-point: 167 at     0.250000    0.500000    0.916667  , weight:   0.00260417
  | k-point: 168 at     0.250000    0.625000    0.000000  , weight:   0.00260417
  | k-point: 169 at     0.250000    0.625000    0.166667  , weight:   0.00260417
  | k-point: 170 at     0.250000    0.625000    0.250000  , weight:   0.00260417
  | k-point: 171 at     0.250000    0.625000    0.333333  , weight:   0.00260417
  | k-point: 172 at     0.250000    0.625000    0.500000  , weight:   0.00260417
  | k-point: 173 at     0.250000    0.625000    0.583333  , weight:   0.00260417
  | k-point: 174 at     0.250000    0.625000    0.666667  , weight:   0.00260417
  | k-point: 175 at     0.250000    0.625000    0.833333  , weight:   0.00260417
  | k-point: 176 at     0.250000    0.625000    0.916667  , weight:   0.00260417
  | k-point: 177 at     0.250000    0.750000    0.000000  , weight:   0.00260417
  | k-point: 178 at     0.250000    0.750000    0.166667  , weight:   0.00260417
  | k-point: 179 at     0.250000    0.750000    0.250000  , weight:   0.00260417
  | k-point: 180 at     0.250000    0.750000    0.333333  , weight:   0.00260417
  | k-point: 181 at     0.250000    0.750000    0.500000  , weight:   0.00260417
  | k-point: 182 at     0.250000    0.750000    0.583333  , weight:   0.00260417
  | k-point: 183 at     0.250000    0.750000    0.666667  , weight:   0.00260417
  | k-point: 184 at     0.250000    0.750000    0.833333  , weight:   0.00260417
  | k-point: 185 at     0.250000    0.750000    0.916667  , weight:   0.00260417
  | k-point: 186 at     0.250000    0.875000    0.000000  , weight:   0.00260417
  | k-point: 187 at     0.250000    0.875000    0.166667  , weight:   0.00260417
  | k-point: 188 at     0.250000    0.875000    0.250000  , weight:   0.00260417
  | k-point: 189 at     0.250000    0.875000    0.333333  , weight:   0.00260417
  | k-point: 190 at     0.250000    0.875000    0.500000  , weight:   0.00260417
  | k-point: 191 at     0.250000    0.875000    0.583333  , weight:   0.00260417
  | k-point: 192 at     0.250000    0.875000    0.666667  , weight:   0.00260417
  | k-point: 193 at     0.250000    0.875000    0.833333  , weight:   0.00260417
  | k-point: 194 at     0.250000    0.875000    0.916667  , weight:   0.00260417
  | k-point: 195 at     0.375000    0.000000    0.000000  , weight:   0.00260417
  | k-point: 196 at     0.375000    0.000000    0.166667  , weight:   0.00260417
  | k-point: 197 at     0.375000    0.000000    0.250000  , weight:   0.00260417
  | k-point: 198 at     0.375000    0.000000    0.333333  , weight:   0.00260417
  | k-point: 199 at     0.375000    0.000000    0.500000  , weight:   0.00260417
  | k-point: 200 at     0.375000    0.000000    0.583333  , weight:   0.00260417
  | k-point: 201 at     0.375000    0.000000    0.666667  , weight:   0.00260417
  | k-point: 202 at     0.375000    0.000000    0.833333  , weight:   0.00260417
  | k-point: 203 at     0.375000    0.000000    0.916667  , weight:   0.00260417
  | k-point: 204 at     0.375000    0.125000    0.000000  , weight:   0.00260417
  | k-point: 205 at     0.375000    0.125000    0.166667  , weight:   0.00260417
  | k-point: 206 at     0.375000    0.125000    0.250000  , weight:   0.00260417
  | k-point: 207 at     0.375000    0.125000    0.333333  , weight:   0.00260417
  | k-point: 208 at     0.375000    0.125000    0.500000  , weight:   0.00260417
  | k-point: 209 at     0.375000    0.125000    0.583333  , weight:   0.00260417
  | k-point: 210 at     0.375000    0.125000    0.666667  , weight:   0.00260417
  | k-point: 211 at     0.375000    0.125000    0.833333  , weight:   0.00260417
  | k-point: 212 at     0.375000    0.125000    0.916667  , weight:   0.00260417
  | k-point: 213 at     0.375000    0.250000    0.000000  , weight:   0.00260417
  | k-point: 214 at     0.375000    0.250000    0.166667  , weight:   0.00260417
  | k-point: 215 at     0.375000    0.250000    0.250000  , weight:   0.00260417
  | k-point: 216 at     0.375000    0.250000    0.333333  , weight:   0.00260417
  | k-point: 217 at     0.375000    0.250000    0.500000  , weight:   0.00260417
  | k-point: 218 at     0.375000    0.250000    0.583333  , weight:   0.00260417
  | k-point: 219 at     0.375000    0.250000    0.666667  , weight:   0.00260417
  | k-point: 220 at     0.375000    0.250000    0.833333  , weight:   0.00260417
  | k-point: 221 at     0.375000    0.250000    0.916667  , weight:   0.00260417
  | k-point: 222 at     0.375000    0.375000    0.000000  , weight:   0.00260417
  | k-point: 223 at     0.375000    0.375000    0.166667  , weight:   0.00260417
  | k-point: 224 at     0.375000    0.375000    0.250000  , weight:   0.00260417
  | k-point: 225 at     0.375000    0.375000    0.333333  , weight:   0.00260417
  | k-point: 226 at     0.375000    0.375000    0.500000  , weight:   0.00260417
  | k-point: 227 at     0.375000    0.375000    0.583333  , weight:   0.00260417
  | k-point: 228 at     0.375000    0.375000    0.666667  , weight:   0.00260417
  | k-point: 229 at     0.375000    0.375000    0.833333  , weight:   0.00260417
  | k-point: 230 at     0.375000    0.375000    0.916667  , weight:   0.00260417
  | k-point: 231 at     0.375000    0.500000    0.000000  , weight:   0.00260417
  | k-point: 232 at     0.375000    0.500000    0.166667  , weight:   0.00260417
  | k-point: 233 at     0.375000    0.500000    0.250000  , weight:   0.00260417
  | k-point: 234 at     0.375000    0.500000    0.333333  , weight:   0.00260417
  | k-point: 235 at     0.375000    0.500000    0.500000  , weight:   0.00260417
  | k-point: 236 at     0.375000    0.500000    0.583333  , weight:   0.00260417
  | k-point: 237 at     0.375000    0.500000    0.666667  , weight:   0.00260417
  | k-point: 238 at     0.375000    0.500000    0.833333  , weight:   0.00260417
  | k-point: 239 at     0.375000    0.500000    0.916667  , weight:   0.00260417
  | k-point: 240 at     0.375000    0.625000    0.000000  , weight:   0.00260417
  | k-point: 241 at     0.375000    0.625000    0.166667  , weight:   0.00260417
  | k-point: 242 at     0.375000    0.625000    0.250000  , weight:   0.00260417
  | k-point: 243 at     0.375000    0.625000    0.333333  , weight:   0.00260417
  | k-point: 244 at     0.375000    0.625000    0.500000  , weight:   0.00260417
  | k-point: 245 at     0.375000    0.625000    0.583333  , weight:   0.00260417
  | k-point: 246 at     0.375000    0.625000    0.666667  , weight:   0.00260417
  | k-point: 247 at     0.375000    0.625000    0.833333  , weight:   0.00260417
  | k-point: 248 at     0.375000    0.625000    0.916667  , weight:   0.00260417
  | k-point: 249 at     0.375000    0.750000    0.000000  , weight:   0.00260417
  | k-point: 250 at     0.375000    0.750000    0.166667  , weight:   0.00260417
  | k-point: 251 at     0.375000    0.750000    0.250000  , weight:   0.00260417
  | k-point: 252 at     0.375000    0.750000    0.333333  , weight:   0.00260417
  | k-point: 253 at     0.375000    0.750000    0.500000  , weight:   0.00260417
  | k-point: 254 at     0.375000    0.750000    0.583333  , weight:   0.00260417
  | k-point: 255 at     0.375000    0.750000    0.666667  , weight:   0.00260417
  | k-point: 256 at     0.375000    0.750000    0.833333  , weight:   0.00260417
  | k-point: 257 at     0.375000    0.750000    0.916667  , weight:   0.00260417
  | k-point: 258 at     0.375000    0.875000    0.000000  , weight:   0.00260417
  | k-point: 259 at     0.375000    0.875000    0.166667  , weight:   0.00260417
  | k-point: 260 at     0.375000    0.875000    0.250000  , weight:   0.00260417
  | k-point: 261 at     0.375000    0.875000    0.333333  , weight:   0.00260417
  | k-point: 262 at     0.375000    0.875000    0.500000  , weight:   0.00260417
  | k-point: 263 at     0.375000    0.875000    0.583333  , weight:   0.00260417
  | k-point: 264 at     0.375000    0.875000    0.666667  , weight:   0.00260417
  | k-point: 265 at     0.375000    0.875000    0.833333  , weight:   0.00260417
  | k-point: 266 at     0.375000    0.875000    0.916667  , weight:   0.00260417
  | k-point: 267 at     0.500000    0.000000    0.000000  , weight:   0.00130208
  | k-point: 268 at     0.500000    0.000000    0.083333  , weight:   0.00260417
  | k-point: 269 at     0.500000    0.000000    0.166667  , weight:   0.00260417
  | k-point: 270 at     0.500000    0.000000    0.250000  , weight:   0.00260417
  | k-point: 271 at     0.500000    0.000000    0.416667  , weight:   0.00260417
  | k-point: 272 at     0.500000    0.000000    0.500000  , weight:   0.00130208
  | k-point: 273 at     0.500000    0.000000    0.666667  , weight:   0.00260417
  | k-point: 274 at     0.500000    0.125000    0.000000  , weight:   0.00260417
  | k-point: 275 at     0.500000    0.125000    0.166667  , weight:   0.00260417
  | k-point: 276 at     0.500000    0.125000    0.250000  , weight:   0.00260417
  | k-point: 277 at     0.500000    0.125000    0.333333  , weight:   0.00260417
  | k-point: 278 at     0.500000    0.125000    0.500000  , weight:   0.00260417
  | k-point: 279 at     0.500000    0.125000    0.583333  , weight:   0.00260417
  | k-point: 280 at     0.500000    0.125000    0.666667  , weight:   0.00260417
  | k-point: 281 at     0.500000    0.125000    0.833333  , weight:   0.00260417
  | k-point: 282 at     0.500000    0.125000    0.916667  , weight:   0.00260417
  | k-point: 283 at     0.500000    0.250000    0.000000  , weight:   0.00260417
  | k-point: 284 at     0.500000    0.250000    0.166667  , weight:   0.00260417
  | k-point: 285 at     0.500000    0.250000    0.250000  , weight:   0.00260417
  | k-point: 286 at     0.500000    0.250000    0.333333  , weight:   0.00260417
  | k-point: 287 at     0.500000    0.250000    0.500000  , weight:   0.00260417
  | k-point: 288 at     0.500000    0.250000    0.583333  , weight:   0.00260417
  | k-point: 289 at     0.500000    0.250000    0.666667  , weight:   0.00260417
  | k-point: 290 at     0.500000    0.250000    0.833333  , weight:   0.00260417
  | k-point: 291 at     0.500000    0.250000    0.916667  , weight:   0.00260417
  | k-point: 292 at     0.500000    0.375000    0.000000  , weight:   0.00260417
  | k-point: 293 at     0.500000    0.375000    0.166667  , weight:   0.00260417
  | k-point: 294 at     0.500000    0.375000    0.250000  , weight:   0.00260417
  | k-point: 295 at     0.500000    0.375000    0.333333  , weight:   0.00260417
  | k-point: 296 at     0.500000    0.375000    0.500000  , weight:   0.00260417
  | k-point: 297 at     0.500000    0.375000    0.583333  , weight:   0.00260417
  | k-point: 298 at     0.500000    0.375000    0.666667  , weight:   0.00260417
  | k-point: 299 at     0.500000    0.375000    0.833333  , weight:   0.00260417
  | k-point: 300 at     0.500000    0.375000    0.916667  , weight:   0.00260417
  | k-point: 301 at     0.500000    0.500000    0.000000  , weight:   0.00130208
  | k-point: 302 at     0.500000    0.500000    0.166667  , weight:   0.00260417
  | k-point: 303 at     0.500000    0.500000    0.250000  , weight:   0.00260417
  | k-point: 304 at     0.500000    0.500000    0.333333  , weight:   0.00260417
  | k-point: 305 at     0.500000    0.500000    0.500000  , weight:   0.00130208
  | k-point: 306 at     0.500000    0.500000    0.583333  , weight:   0.00260417
  | k-point: 307 at     0.500000    0.500000    0.916667  , weight:   0.00260417
  | k-point: 308 at     0.500000    0.625000    0.250000  , weight:   0.00260417
  | k-point: 309 at     0.500000    0.625000    0.583333  , weight:   0.00260417
  | k-point: 310 at     0.500000    0.625000    0.916667  , weight:   0.00260417
  | k-point: 311 at     0.500000    0.750000    0.250000  , weight:   0.00260417
  | k-point: 312 at     0.500000    0.750000    0.583333  , weight:   0.00260417
  | k-point: 313 at     0.500000    0.750000    0.916667  , weight:   0.00260417
  | k-point: 314 at     0.500000    0.875000    0.250000  , weight:   0.00260417
  | k-point: 315 at     0.500000    0.875000    0.583333  , weight:   0.00260417
  | k-point: 316 at     0.500000    0.875000    0.916667  , weight:   0.00260417
  | k-point: 317 at     0.625000    0.000000    0.250000  , weight:   0.00260417
  | k-point: 318 at     0.625000    0.000000    0.583333  , weight:   0.00260417
  | k-point: 319 at     0.625000    0.000000    0.916667  , weight:   0.00260417
  | k-point: 320 at     0.625000    0.125000    0.250000  , weight:   0.00260417
  | k-point: 321 at     0.625000    0.125000    0.583333  , weight:   0.00260417
  | k-point: 322 at     0.625000    0.125000    0.916667  , weight:   0.00260417
  | k-point: 323 at     0.625000    0.250000    0.250000  , weight:   0.00260417
  | k-point: 324 at     0.625000    0.250000    0.583333  , weight:   0.00260417
  | k-point: 325 at     0.625000    0.250000    0.916667  , weight:   0.00260417
  | k-point: 326 at     0.625000    0.375000    0.250000  , weight:   0.00260417
  | k-point: 327 at     0.625000    0.375000    0.583333  , weight:   0.00260417
[...]
      7       1.00000         -18.855639         -513.08804
      8       1.00000         -18.854929         -513.06873
      9       1.00000         -16.453466         -447.72158
     10       1.00000         -16.453378         -447.71919
     11       1.00000         -16.453286         -447.71668
     12       1.00000         -16.453239         -447.71541
     13       1.00000         -16.453026         -447.70963
     14       1.00000         -16.453023         -447.70954
     15       1.00000          -2.413411          -65.67226
     16       1.00000          -2.412837          -65.65663
     17       1.00000          -1.542626          -41.97698
     18       1.00000          -1.542353          -41.96957
     19       1.00000          -1.536856          -41.81997
     20       1.00000          -1.536833          -41.81936
     21       1.00000          -1.535775          -41.79056
     22       1.00000          -1.534685          -41.76091
     23       1.00000          -0.985230          -26.80946
     24       1.00000          -0.943980          -25.68700
     25       1.00000          -0.918930          -25.00537
     26       1.00000          -0.918433          -24.99184
     27       1.00000          -0.528871          -14.39133
     28       1.00000          -0.512919          -13.95723
     29       1.00000          -0.493531          -13.42965
     30       1.00000          -0.458164          -12.46729
     31       1.00000          -0.457767          -12.45647
     32       1.00000          -0.412879          -11.23500
     33       1.00000          -0.412373          -11.22123
     34       1.00000          -0.391189          -10.64479
     35       1.00000          -0.346044           -9.41632
     36       1.00000          -0.336902           -9.16758
     37       1.00000          -0.336313           -9.15156
     38       1.00000          -0.319875           -8.70424
     39       0.00000          -0.253744           -6.90474
     40       0.00000          -0.242835           -6.60787
     41       0.00000          -0.233420           -6.35169
     42       0.00000          -0.231199           -6.29125
     43       0.00000          -0.231159           -6.29017
     44       0.00000          -0.166924           -4.54225
     45       0.00000          -0.157948           -4.29798
     46       0.00000          -0.083662           -2.27656
     47       0.00000          -0.083507           -2.27234
     48       0.00000          -0.052025           -1.41566
     49       0.00000          -0.034621           -0.94208
     50       0.00000           0.108944            2.96451
     51       0.00000           0.111847            3.04350
     52       0.00000           0.211124            5.74498
     53       0.00000           0.259681            7.06627
     54       0.00000           0.300790            8.18491
     55       0.00000           0.339636            9.24195
     56       0.00000           0.389642           10.60270
     57       0.00000           0.390899           10.63691
     58       0.00000           0.428502           11.66014
     59       0.00000           0.464025           12.62676
     60       0.00000           0.554537           15.08972
     61       0.00000           0.617618           16.80624

  Spin-down eigenvalues:
  K-point:       1 at    0.000000    0.000000    0.000000 (in units of recip. lattice)

  State    Occupation    Eigenvalue [Ha]    Eigenvalue [eV]
      1       1.00000        -178.964060        -4869.85985
      2       1.00000        -178.963429        -4869.84267
      3       1.00000         -19.861411         -540.45650
      4       1.00000         -19.861174         -540.45005
      5       1.00000         -18.856431         -513.10961
      6       1.00000         -18.855639         -513.08804
      7       1.00000         -18.855639         -513.08804
      8       1.00000         -18.854929         -513.06873
      9       1.00000         -16.453466         -447.72158
     10       1.00000         -16.453378         -447.71919
     11       1.00000         -16.453286         -447.71668
     12       1.00000         -16.453239         -447.71541
     13       1.00000         -16.453026         -447.70963
     14       1.00000         -16.453023         -447.70954
     15       1.00000          -2.413411          -65.67226
     16       1.00000          -2.412837          -65.65663
     17       1.00000          -1.542626          -41.97698
     18       1.00000          -1.542353          -41.96957
     19       1.00000          -1.536856          -41.81997
     20       1.00000          -1.536833          -41.81936
     21       1.00000          -1.535775          -41.79056
     22       1.00000          -1.534685          -41.76091
     23       1.00000          -0.985230          -26.80946
     24       1.00000          -0.943980          -25.68700
     25       1.00000          -0.918930          -25.00537
     26       1.00000          -0.918433          -24.99184
     27       1.00000          -0.528871          -14.39133
     28       1.00000          -0.512919          -13.95723
     29       1.00000          -0.493531          -13.42965
     30       1.00000          -0.458164          -12.46729
     31       1.00000          -0.457767          -12.45647
     32       1.00000          -0.412879          -11.23500
     33       1.00000          -0.412373          -11.22123
     34       1.00000          -0.391189          -10.64479
     35       1.00000          -0.346044           -9.41632
     36       1.00000          -0.336902           -9.16758
     37       1.00000          -0.336313           -9.15156
     38       1.00000          -0.319875           -8.70424
     39       0.00000          -0.253744           -6.90474
     40       0.00000          -0.242835           -6.60787
     41       0.00000          -0.233420           -6.35169
     42       0.00000          -0.231199           -6.29125
     43       0.00000          -0.231159           -6.29017
     44       0.00000          -0.166924           -4.54225
     45       0.00000          -0.157948           -4.29798
     46       0.00000          -0.083662           -2.27656
     47       0.00000          -0.083507           -2.27234
     48       0.00000          -0.052025           -1.41566
     49       0.00000          -0.034621           -0.94208
     50       0.00000           0.108944            2.96451
     51       0.00000           0.111847            3.04350
     52       0.00000           0.211124            5.74498
     53       0.00000           0.259681            7.06627
     54       0.00000           0.300790            8.18491
     55       0.00000           0.339636            9.24195
     56       0.00000           0.389642           10.60270
     57       0.00000           0.390899           10.63691
     58       0.00000           0.428502           11.66014
     59       0.00000           0.464025           12.62676
     60       0.00000           0.554537           15.08972
     61       0.00000           0.617618           16.80624

  Current spin moment of the entire structure :
  | N = N_up - N_down (sum over all k points):         0.00000
  | S (sum over all k points)                :         0.00000

  What follows are estimated values for band gap, HOMO, LUMO, etc.
  | They are estimated on a discrete k-point grid and not necessarily exact.
  | For converged numbers, create a DOS and/or band structure plot on a denser k-grid.

  Highest occupied state (VBM) at     -8.70423919 eV (relative to internal zero)
  | Occupation number:      1.00000000
  | K-point:       1 at    0.000000    0.000000    0.000000 (in units of recip. lattice)
  | Spin channel:        2

  Lowest unoccupied state (CBM) at    -6.90473729 eV (relative to internal zero)
  | Occupation number:      0.00000000
  | K-point:       1 at    0.000000    0.000000    0.000000 (in units of recip. lattice)
  | Spin channel:        1

  ESTIMATED overall HOMO-LUMO gap:      1.79950191 eV between HOMO at k-point 1 and LUMO at k-point 1
  | This appears to be a direct band gap.
  The gap value is above 0.2 eV. Unless you are using a very sparse k-point grid,
  this system is most likely an insulator or a semiconductor.

  Total energy components:
  | Sum of eigenvalues            :       -1189.42431103 Ha      -32365.88226105 eV
  | XC energy correction          :        -118.62422624 Ha       -3227.92943129 eV
  | XC potential correction       :         153.37563718 Ha        4173.56343628 eV
  | Free-atom electrostatic energy:        -855.17479583 Ha      -23270.49018395 eV
  | Hartree energy correction     :           0.86905215 Ha          23.64811233 eV
  | Entropy correction            :          -0.00000000 Ha          -0.00000000 eV
  | ---------------------------
  | Total energy                  :       -2008.97864376 Ha      -54667.09032767 eV
  | Total energy, T -> 0          :       -2008.97864376 Ha      -54667.09032767 eV  <-- do not rely on this value for anything but (periodic) metals
  | Electronic free energy        :       -2008.97864376 Ha      -54667.09032767 eV

  Derived energy quantities:
  | Kinetic energy                :        2032.61635718 Ha       55310.30523633 eV
  | Electrostatic energy          :       -3922.97077470 Ha     -106749.46613272 eV
  | Energy correction for multipole
  | error in Hartree potential    :           0.01618401 Ha           0.44038943 eV
  | Sum of eigenvalues per atom                           :       -5394.31371018 eV
  | Total energy (T->0) per atom                          :       -9111.18172128 eV  <-- do not rely on this value for anything but (periodic) metals
  | Electronic free energy per atom                       :       -9111.18172128 eV
  End evaluation of scaled ZORA corrections.
  | Time for scaled ZORA corrections            :        5.868 s           5.869 s
------------------------------------------------------------

  Energy and forces in a compact form:
  | Total energy uncorrected      :         -0.546670903276749E+05 eV
  | Total energy corrected        :         -0.546670903276749E+05 eV  <-- do not rely on this value for anything but (periodic) metals
  | Electronic free energy        :         -0.546670903276749E+05 eV

  ------------------------------------ 
  Start decomposition of the XC Energy 
  ------------------------------------ 
  X and C from original XC functional choice 
  Hartree-Fock Energy :          0.000000000 Ha              0.000000000 eV
  X Energy            :       -115.613922491 Ha          -3146.014898467 eV
  C Energy            :         -3.010303751 Ha            -81.914532818 eV
  XC Energy w/o HF    :       -118.624226242 Ha          -3227.929431285 eV
  Total XC Energy     :       -118.624226242 Ha          -3227.929431285 eV
  ------------------------------------ 
  LDA X and C from self-consistent density 
  X Energy LDA        :       -107.325509389 Ha          -2920.475702652 eV
  C Energy LDA        :         -5.871435063 Ha           -159.769877066 eV
  ------------------------------------ 
  End decomposition of the XC Energy 
  ------------------------------------ 

------------------------------------------------------------

  ------------------------------------------------------------
                   Starting Mulliken Analysis
  ------------------------------------------------------------

  Performing Mulliken charge analysis on all atoms.
  Full analysis will be written to separate file 'Mulliken.out'.
  Summary of the per-atom charge analysis:
  |
  |  atom       electrons          charge             l=0             l=1             l=2             l=3             l=4
  |     1       21.198786        0.801214        6.180770       12.623846        2.254594        0.139577
  |     2       21.321695        0.678305        6.272515       12.667986        2.244849        0.136345
  |     3        7.413003        0.586997        3.665117        4.244408       -0.505381        0.008063        0.000797
  |     4        8.682486       -0.682486        3.846672        4.826017        0.009797
  |     5        8.692015       -0.692015        3.843864        4.838349        0.009803
  |     6        8.692014       -0.692014        3.843864        4.838347        0.009803
  |
  | Total       76.000000       -0.000000
 
  Summary of the per-atom spin analysis:
  |
  |  atom   spin      l=0         l=1         l=2         l=3         l=4
  |     1    0.000000    0.000000    0.000000    0.000000    0.000000
  |     2    0.000000    0.000000    0.000000    0.000000    0.000000
  |     3   -0.000000   -0.000000    0.000000    0.000000   -0.000000    0.000000
  |     4   -0.000000   -0.000000   -0.000000   -0.000000
  |     5    0.000000   -0.000000    0.000000    0.000000
  |     6    0.000000    0.000000    0.000000    0.000000
  |
  | Total    0.000000
 
  Writing Mulliken decomposition to disk ...

  Mulliken analysis                                       :  max(cpu_time)    wall_clock(cpu1)
  | Time for Mulliken analysis                            :          7.525               7.526
  | Total time for Mulliken analysis                      :          7.525               7.526
------------------------------------------------------------

------------------------------------------------------------------------------
  Final output of selected total energy values:

  The following output summarizes some interesting total energy values
  at the end of a run (AFTER all relaxation, molecular dynamics, etc.).

  | Total energy of the DFT / Hartree-Fock s.c.f. calculation      :         -54667.090327675 eV
  | Final zero-broadening corrected energy (caution - metals only) :         -54667.090327675 eV
  | For reference only, the value of 1 Hartree used in FHI-aims is :             27.211384500 eV
  | For reference only, the overall average (free atom contribution
  | + realspace contribution) of the electrostatic potential after
  | s.c.f. convergence is                                          :            -16.990209761 eV

  Before relying on these values, please be sure to understand exactly which
  total energy value is referred to by a given number. Different objects may
  all carry the same name 'total energy'. Definitions:

  Total energy of the DFT / Hartree-Fock s.c.f. calculation:
  | Note that this energy does not include ANY quantities calculated after the
  | s.c.f. cycle, in particular not ANY RPA, MP2, etc. many-body perturbation terms.
  | Scalar relativistic effects have been included in the 'scaled ZORA' approximation.

  Final zero-broadening corrected energy:
  | For metallic systems only, a broadening of the occupation numbers at the Fermi
  | level can be extrapolated back to zero broadening by an electron-gas inspired
  | formula. For all systems that are not real metals, this value can be
  | meaningless and should be avoided.

------------------------------------------------------------------------------
  Methods described in the following list of references were used in this FHI-aims run.
  If you publish the results, please make sure to cite these reference if they apply.
  FHI-aims is an academic code, and for our developers (often, Ph.D. students
  and postdocs), scientific credit in the community is essential.
  Thank you for helping us!

  For any use of FHI-aims, please cite:

    Volker Blum, Ralf Gehrke, Felix Hanke, Paula Havu, Ville Havu,
    Xinguo Ren, Karsten Reuter, and Matthias Scheffler
    'Ab initio molecular simulations with numeric atom-centered orbitals'
    Computer Physics Communications 180, 2175-2196 (2009)
    http://doi.org/10.1016/j.cpc.2009.06.022


  The provided symmetry information was generated with SPGlib:

    Atsushi Togo, Yusuke Seto, Dimitar Pashov
    SPGlib 1.7.3 obtained from http://spglib.sourceforge.net
    Licence: New BSD license
    Copyright (C) 2008 Atsushi Togo


  The ELSI infrastructure was used in your run to solve the Kohn-Sham electronic structure.
  Please check out https://wordpress.elsi-interchange.org to learn more.
  If scalability is important for your project, please acknowledge ELSI by citing:

    V. W-z. Yu, F. Corsetti, A. Garcia, W. P. Huhn, M. Jacquelin, W. Jia,
    B. Lange, L. Lin, J. Lu, W. Mi, A. Seifitokaldani, A. Vazquez-Mayagoitia,
    C. Yang, H. Yang, and V. Blum
    'ELSI: A unified software interface for Kohn-Sham electronic structure solvers'
    Computer Physics Communications 222, 267-285 (2018).
    http://doi.org/10.1016/j.cpc.2017.09.007


  For the real-space grid partitioning and parallelization used in this calculation, please cite:

    Ville Havu, Volker Blum, Paula Havu, and Matthias Scheffler,
    'Efficient O(N) integration for all-electron electronic structure calculation'
    'using numerically tabulated basis functions'
    Journal of Computational Physics 228, 8367-8379 (2009).
    http://doi.org/10.1016/j.jcp.2009.08.008

  Of course, there are many other important community references, e.g., those cited in the
  above references. Our list is limited to references that describe implementations in the
  FHI-aims code. The reason is purely practical (length of this list) - please credit others as well.

------------------------------------------------------------
          Leaving FHI-aims.
          Date     :  20241021, Time     :  115800.868

          Computational steps:
          | Number of self-consistency cycles          :           19
          | Number of SCF (re)initializations          :            1

          Detailed time accounting                     :  max(cpu_time)    wall_clock(cpu1)
          | Total time                                  :      102.986 s         102.989 s
          | Preparation time                            :        0.661 s           0.659 s
          | Boundary condition initalization            :        0.076 s           0.076 s
          | Grid partitioning                           :        0.045 s           0.044 s
          | Preloading free-atom quantities on grid     :        0.258 s           0.258 s
          | Free-atom superposition energy              :        0.018 s           0.018 s
          | Total time for integrations                 :       37.621 s          37.621 s
          | Total time for solution of K.-S. equations  :        9.901 s           9.902 s
          | Total time for density update               :       39.537 s          39.540 s
          | Total time for mixing                       :        0.021 s           0.021 s
          | Total time for Hartree multipole update     :        0.034 s           0.034 s
          | Total time for Hartree multipole sum        :        1.316 s           1.314 s
          | Total time for total energy evaluation      :        0.046 s           0.044 s
          | Total time for scaled ZORA corrections      :        5.868 s           5.869 s
          | Total time for Mulliken analysis            :        7.525 s           7.526 s

          Partial memory accounting:
          | Residual value for overall tracked memory usage across tasks:     0.000000 MB (should be 0.000000 MB)
          | Peak values for overall tracked memory usage:
          |   Minimum:       48.016 MB (on task  4 after allocating zora_vector2)
          |   Maximum:       53.975 MB (on task 19 after allocating zora_vector2)
          |   Average:       50.605 MB
          | Largest tracked array allocation:
          |   Minimum:        9.265 MB (hamiltonian_shell on task  4)
          |   Maximum:       12.637 MB (hamiltonian_shell on task 19)
          |   Average:       10.769 MB
          Note:  These values currently only include a subset of arrays which are explicitly tracked.
          The "true" memory usage will be greater.

          Have a nice day.
------------------------------------------------------------
