------------------------------------------------------------
          Invoking FHI-aims ...

          When using FHI-aims, please cite the following reference:

            Volker Blum, Ralf Gehrke, Felix Hanke, Paula Havu,
            Ville Havu, Xinguo Ren, Karsten Reuter, and Matthias Scheffler,
            'Ab Initio Molecular Simulations with Numeric Atom-Centered Orbitals',
            Computer Physics Communications 180, 2175-2196 (2009)

          In addition, many other developments in FHI-aims are likely important for
          your particular application. If so, please cite them. A partial list of references
          is written at the end of this file. Thank you for giving credit to the authors
          of these developments.

          For general information about FHI-aims please find us at

            https://fhi-aims.org

          Online tutorials can be found at

            https://fhi-aims-club.gitlab.io/tutorials/tutorials-overview/

          For any questions about FHI-aims, please visit our slack channel at

            https://fhi-aims.slack.com

          and our main development and support site at

            https://aims-git.rz-berlin.mpg.de .

          The latter site, in particular, has a wiki to collect information, as well
          as an issue tracker to log discussions, suggest improvements, and report issues
          or bugs. https://aims-git.rz-berlin.mpg.de is also the main development site
          of the project and all new and updated code versions can be obtained there.
          Please send an email to aims-coordinators@fhi-berlin.mpg.de and we will add
          you to these sites. They are for you and everyone is welcome there.

------------------------------------------------------------



  Date     :  20240627, Time     :  161024.024
  Time zero on CPU 1             :   0.286252000000000E+00  s.
  Internal wall clock time zero  :           488736624.024  s.

  FHI-aims created a unique identifier for this run for later identification
  aims_uuid : 85129C0A-B5D9-46E0-AED5-36D9821443FD

  Build configuration of the current instance of FHI-aims
  -------------------------------------------------------
  FHI-aims version      : 240605
  Commit number         : b001b2e18
  CMake host system     : Linux-6.5.0-41-generic
  CMake version         : 3.22.1
  Fortran compiler      : /opt/intel/oneapi/mpi/2021.12/bin/mpiifort (IntelLLVM) version 2024.1.0
  Fortran compiler flags: -fc=ifx -O3 -ip -fp-model precise
  C compiler            : /opt/intel/oneapi/mpi/2021.12/bin/mpiicc (IntelLLVM) version 2024.1.0
  C compiler flags      : -cc=icx -O3 -ip -fp-model precise -std=gnu99
  C++ compiler          : /opt/intel/oneapi/mpi/2021.12/bin/mpiicpc (IntelLLVM) version 2024.1.0
  C++ compiler flags    : -cxx=icpx -O3 -ip -fp-model precise -std=c++11
  HIP compiler          :
  HIP compiler flags    :
  HIP GPU arch          :
  Using MPI
  Using ScaLAPACK
  Using LibXC
  Using i-PI
  Using RLSY
  Linking against: /opt/intel/oneapi/mkl/2024.1/lib/intel64/libmkl_intel_lp64.so
                   /opt/intel/oneapi/mkl/2024.1/lib/intel64/libmkl_sequential.so
                   /opt/intel/oneapi/mkl/2024.1/lib/intel64/libmkl_core.so
                   /opt/intel/oneapi/mkl/2024.1/lib/intel64/libmkl_blacs_intelmpi_lp64.so
                   /opt/intel/oneapi/mkl/2024.1/lib/intel64/libmkl_scalapack_lp64.so
                   /opt/intel/oneapi/mkl/2024.1/lib/intel64/libmkl_core.so

  Using       24 parallel tasks.
  Task        0 on host RSL-arvutus reporting.
  Task        1 on host RSL-arvutus reporting.
  Task        2 on host RSL-arvutus reporting.
  Task        3 on host RSL-arvutus reporting.
  Task        4 on host RSL-arvutus reporting.
  Task        5 on host RSL-arvutus reporting.
  Task        6 on host RSL-arvutus reporting.
  Task        7 on host RSL-arvutus reporting.
  Task        8 on host RSL-arvutus reporting.
  Task        9 on host RSL-arvutus reporting.
  Task       10 on host RSL-arvutus reporting.
  Task       11 on host RSL-arvutus reporting.
  Task       12 on host RSL-arvutus reporting.
  Task       13 on host RSL-arvutus reporting.
  Task       14 on host RSL-arvutus reporting.
  Task       15 on host RSL-arvutus reporting.
  Task       16 on host RSL-arvutus reporting.
  Task       17 on host RSL-arvutus reporting.
  Task       18 on host RSL-arvutus reporting.
  Task       19 on host RSL-arvutus reporting.
  Task       20 on host RSL-arvutus reporting.
  Task       21 on host RSL-arvutus reporting.
  Task       22 on host RSL-arvutus reporting.
  Task       23 on host RSL-arvutus reporting.

  Memory overcommitment is allowed on your operating system.

  Obtaining array dimensions for all initial allocations:
  
  -----------------------------------------------------------------------
  Parsing control.in (first pass over file, find array dimensions only).
  The contents of control.in will be repeated verbatim below
  unless switched off by setting 'verbatim_writeout .false.' .
  in the first line of control.in .
  -----------------------------------------------------------------------
  
  xc              pbe
  relativistic    atomic_zora scalar
  k_grid          8 8 8
  relax_geometry  bfgs 5e-3
  relax_unit_cell full
  ################################################################################
  #
  #  FHI-aims code project
  #  VB, Fritz-Haber Institut, 2009
  #
  #  Suggested "light" defaults for Ti atom (to be pasted into control.in file)
  #  Be sure to double-check any results obtained with these settings for post-processing,
  #  e.g., with the "tight" defaults and larger basis sets.
  #
  ################################################################################
    species        Ti
  #     global species definitions
      nucleus             22
      mass                47.867
  #
      l_hartree           4
  #
      cut_pot             3.5          1.5  1.0
      basis_dep_cutoff    1e-4
  #
      radial_base         48 5.0
      radial_multiplier   1
      angular_grids       specified
        division   0.5171   50
        division   0.9824  110
        division   1.2917  194
        division   1.4940  302
  #      division   1.6934  434
  #      division   1.8425  590
  #      division   2.1901  770
  #      division   2.2896  974
  #      division   2.8244 1202
  #      outer_grid  974
        outer_grid  302
  ################################################################################
  #
  #  Definition of "minimal" basis
  #
  ################################################################################
  #     valence basis states
      valence      4  s   2.
      valence      3  p   6.
      valence      3  d   2.
  #     ion occupancy
      ion_occ      4  s   1.
      ion_occ      3  p   6.
      ion_occ      3  d   1.
  ################################################################################
  #
  #  Suggested additional basis functions. For production calculations,
  #  uncomment them one after another (the most important basis functions are
  #  listed first).
  #
  #  Constructed for dimers: 1.6 A, 1.85 A, 2.5 A, 3.25 A, 4.25 A
  #
  ################################################################################
  #  "First tier" - improvements: -396.25 meV to -19.41 meV
       hydro 4 f 8
       hydro 3 d 2.7
       ionic 4 p auto
  #     hydro 5 g 11.6
       ionic 4 s auto
  #  "Second tier" - improvements: -16.30 meV to -2.03 meV
  #     hydro 3 d 4.4
  #     hydro 6 h 16
  #     hydro 4 f 9.4
  #     hydro 4 p 4.5
  #     hydro 1 s 0.5
  #  "Third tier" - improvements: -6.28 meV to -0.37 meV
  #     hydro 4 d 6.4
  #     hydro 4 f 10
  #     hydro 5 g 12
  #     hydro 2 p 1.7
  #     hydro 6 h 16.4
  #     hydro 4 s 3.8
  #  Further basis functions: -0.45 meV and smaller improvements
  #     hydro 3 d 8.8
  #     hydro 5 p 18
  #     hydro 4 f 22.4
  #     hydro 5 f 7.2  # -0.16 meV
  #     hydro 3 d 2.1  # -0.11 meV
  #     hydro 5 g 7.4  # -0.09 meV
  ################################################################################
  #
  #  FHI-aims code project
  #  VB, Fritz-Haber Institut, 2009
  #
  #  Suggested "light" defaults for O atom (to be pasted into control.in file)
  #  Be sure to double-check any results obtained with these settings for post-processing,
  #  e.g., with the "tight" defaults and larger basis sets.
  #
  ################################################################################
    species        O
  #     global species definitions
      nucleus             8
      mass                15.9994
  #
      l_hartree           4
  #
      cut_pot             3.5  1.5  1.0
      basis_dep_cutoff    1e-4
  #
      radial_base         36 5.0
      radial_multiplier   1
       angular_grids specified
        division   0.2659   50
        division   0.4451  110
        division   0.6052  194
        division   0.7543  302
  #      division   0.8014  434
  #      division   0.8507  590
  #      division   0.8762  770
  #      division   0.9023  974
  #      division   1.2339 1202
  #      outer_grid 974
        outer_grid 302
  ################################################################################
  #
  #  Definition of "minimal" basis
  #
  ################################################################################
  #     valence basis states
      valence      2  s   2.
      valence      2  p   4.
  #     ion occupancy
      ion_occ      2  s   1.
      ion_occ      2  p   3.
  ################################################################################
  #
  #  Suggested additional basis functions. For production calculations,
  #  uncomment them one after another (the most important basis functions are
  #  listed first).
  #
  #  Constructed for dimers: 1.0 A, 1.208 A, 1.5 A, 2.0 A, 3.0 A
  #
  ################################################################################
  #  "First tier" - improvements: -699.05 meV to -159.38 meV
       hydro 2 p 1.8
       hydro 3 d 7.6
       hydro 3 s 6.4
  #  "Second tier" - improvements: -49.91 meV to -5.39 meV
  #     hydro 4 f 11.6
  #     hydro 3 p 6.2
  #     hydro 3 d 5.6
  #     hydro 5 g 17.6
  #     hydro 1 s 0.75
  #  "Third tier" - improvements: -2.83 meV to -0.50 meV
  #     ionic 2 p auto
  #     hydro 4 f 10.8
  #     hydro 4 d 4.7
  #     hydro 2 s 6.8
  #  "Fourth tier" - improvements: -0.40 meV to -0.12 meV
  #     hydro 3 p 5
  #     hydro 3 s 3.3
  #     hydro 5 g 15.6
  #     hydro 4 f 17.6
  #     hydro 4 d 14
  # Further basis functions - -0.08 meV and below
  #     hydro 3 s 2.1
  #     hydro 4 d 11.6
  #     hydro 3 p 16
  #     hydro 2 s 17.2
  
  -----------------------------------------------------------------------
  Completed first pass over input file control.in .
  -----------------------------------------------------------------------
  
  
  -----------------------------------------------------------------------
  Parsing geometry.in (first pass over file, find array dimensions only).
  The contents of geometry.in will be repeated verbatim below
  unless switched off by setting 'verbatim_writeout .false.' .
  in the first line of geometry.in .
  -----------------------------------------------------------------------
  
  lattice_vector 4.594000 0.000000 0.000000
  lattice_vector 0.000000 4.594000 0.000000
  lattice_vector 0.000000 0.000000 2.958000
  
  atom_frac 0.000000 0.000000 0.000000 Ti
  atom_frac 0.500000 0.500000 0.500000 Ti
  atom_frac 0.305000 0.305000 0.000000 O
  atom_frac 0.695000 0.695000 0.000000 O
  atom_frac 0.305000 0.695000 0.500000 O
  atom_frac 0.695000 0.305000 0.500000 O
  
  -----------------------------------------------------------------------
  Completed first pass over input file geometry.in .
  -----------------------------------------------------------------------
  

  Basic array size parameters:
  | Number of species                 :        2
  | Number of atoms                   :        6
  | Number of lattice vectors         :        3
  | Max. basis fn. angular momentum   :        3
  | Max. atomic/ionic basis occupied n:        4
  | Max. number of basis fn. types    :        3
  | Max. radial fns per species/type  :        7
  | Max. logarithmic grid size        :     1383
  | Max. radial integration grid size :       48
  | Max. angular integration grid size:      302
  | Max. angular grid division number :        8
  | Radial grid for Hartree potential :     1383
  | Number of spin channels           :        1

------------------------------------------------------------
          Reading file control.in.
------------------------------------------------------------
  XC: Using PBE gradient-corrected functionals.
  Scalar relativistic treatment of kinetic energy: on-site free-atom approximation to ZORA.
  Found k-point grid:         8         8         8
  Geometry relaxation: Modified BFGS - TRM (trust radius method) for lattice optimization.
  Convergence accuracy for geometry relaxation: Maximum force <   0.500000E-02 eV/A.
 
  Reading configuration options for species Ti                  .
  | Found nuclear charge :  22.0000
  | Found atomic mass :    47.8670000000000      amu
  | Found l_max for Hartree potential  :   4
  | Found cutoff potl. onset [A], width [A], scale factor :    3.50000    1.50000    1.00000
  | Threshold for basis-dependent cutoff potential is   0.100000E-03
  | Found data for basic radial integration grid :    48 points, outermost radius =    5.000 A
  | Found multiplier for basic radial grid :   1
  | Found angular grid specification: user-specified.
  | Specified grid contains     5 separate shells.
  | Check grid settings after all constraints further below.
  | Found free-atom valence shell :  4 s   2.000
  | Found free-atom valence shell :  3 p   6.000
  | Found free-atom valence shell :  3 d   2.000
  | Found free-ion valence shell :  4 s   1.000
  | Found free-ion valence shell :  3 p   6.000
  | Found free-ion valence shell :  3 d   1.000
  | Found hydrogenic basis function :  4 f   8.000
  | Found hydrogenic basis function :  3 d   2.700
  | Found ionic basis function :  4 p , default cutoff radius.
  | Found ionic basis function :  4 s , default cutoff radius.
 | Encountered keyword species, ending the description of species Ti                  .
  Species Ti                  : Missing cutoff potential type.
  Defaulting to exp(1/x)/(1-x)^2 type cutoff potential.
  Species Ti: No 'logarithmic' tag. Using default grid for free atom:
  | Default logarithmic grid data [bohr] : 0.1000E-03 0.1000E+03 0.1012E+01
  | Will include ionic basis functions of  2.0-fold positive Ti                   ion.
  Species Ti: On-site basis accuracy parameter (for Gram-Schmidt orthonormalisation) not specified.
  Using default value basis_acc =  0.1000000E-03.
  Species Ti                  : Using default innermost maximum threshold i_radial=  2 for radial functions.
  Species Ti                  : Default cutoff onset for free atom density etc. : 0.35000000E+01 AA.
  Species Ti                  : Basic radial grid will be enhanced according to radial_multiplier =   1, to contain    48 grid points.
 
  Reading configuration options for species O                   .
  | Found nuclear charge :   8.0000
  | Found atomic mass :    15.9994000000000      amu
  | Found l_max for Hartree potential  :   4
  | Found cutoff potl. onset [A], width [A], scale factor :    3.50000    1.50000    1.00000
  | Threshold for basis-dependent cutoff potential is   0.100000E-03
  | Found data for basic radial integration grid :    36 points, outermost radius =    5.000 A
  | Found multiplier for basic radial grid :   1
  | Found angular grid specification: user-specified.
  | Specified grid contains     5 separate shells.
  | Check grid settings after all constraints further below.
  | Found free-atom valence shell :  2 s   2.000
  | Found free-atom valence shell :  2 p   4.000
  | Found free-ion valence shell :  2 s   1.000
  | Found free-ion valence shell :  2 p   3.000
  | Found hydrogenic basis function :  2 p   1.800
  | Found hydrogenic basis function :  3 d   7.600
  | Found hydrogenic basis function :  3 s   6.400
  Species O                   : Missing cutoff potential type.
  Defaulting to exp(1/x)/(1-x)^2 type cutoff potential.
  Species O : No 'logarithmic' tag. Using default grid for free atom:
  | Default logarithmic grid data [bohr] : 0.1000E-03 0.1000E+03 0.1012E+01
  Species O : On-site basis accuracy parameter (for Gram-Schmidt orthonormalisation) not specified.
  Using default value basis_acc =  0.1000000E-03.
  Species O                   : Using default innermost maximum threshold i_radial=  2 for radial functions.
  Species O                   : Default cutoff onset for free atom density etc. : 0.35000000E+01 AA.
  Species O                   : Basic radial grid will be enhanced according to radial_multiplier =   1, to contain    36 grid points.
 
  Finished reading input file 'control.in'.
 
------------------------------------------------------------


------------------------------------------------------------
          Reading geometry description geometry.in.
------------------------------------------------------------
  | The smallest distance between any two atoms is         1.26689494 AA.
  | The first atom of this pair is atom number                      2 .
  | The second atom of this pair is atom number                     6 .
  | Wigner-Seitz cell of the first atom image           0     1     0 .
  | (The Wigner-Seitz cell of the second atom is 0 0 0  by definition.)

  Symmetry information by spglib:
  | Precision set to  0.1E-04
  | Number of Operations  : 8
  | Space group           : 65
  | International         : Cmmm
  | Schoenflies           : D2h^19
  Input structure read successfully.
  The structure contains        6 atoms,  and a total of         76.000 electrons.

  Input geometry:
  | Unit cell:
  |        4.59400000        0.00000000        0.00000000
  |        0.00000000        4.59400000        0.00000000
  |        0.00000000        0.00000000        2.95800000
  | Atomic structure:
  |       Atom                x [A]            y [A]            z [A]
  |    1: Species Ti            0.00000000        0.00000000        0.00000000
  |    2: Species Ti            2.29700000        2.29700000        1.47900000
  |    3: Species O             1.40117000        1.40117000        0.00000000
  |    4: Species O             3.19283000        3.19283000        0.00000000
  |    5: Species O             1.40117000        3.19283000        1.47900000
  |    6: Species O             3.19283000        1.40117000        1.47900000

  Lattice parameters for 3D lattice (in Angstroms) :     4.594000    4.594000    2.958000
  Angle(s) between unit vectors (in degrees)       :    90.000000   90.000000   90.000000


  Quantities derived from the lattice vectors (in Angstrom^-1):
  | Reciprocal lattice vector 1:  1.367694  0.000000  0.000000
  | Reciprocal lattice vector 2:  0.000000  1.367694  0.000000
  | Reciprocal lattice vector 3:  0.000000  0.000000  2.124133
  | Unit cell volume                               :   0.624281E+02  Angstrom^3

  Fractional coordinates:
                         L1                L2                L3
       atom_frac         0.00000000        0.00000000        0.00000000  Ti
       atom_frac         0.50000000        0.50000000        0.50000000  Ti
       atom_frac         0.30500000        0.30500000        0.00000000  O
       atom_frac         0.69500000        0.69500000        0.00000000  O
       atom_frac         0.30500000        0.69500000        0.50000000  O
       atom_frac         0.69500000        0.30500000        0.50000000  O

  Slab Identifier: This seems to be a bulk system.
 
  Finished reading input file 'geometry.in'.
 

 
  Consistency checks for stacksize environment parameter are next.
 
  | Maximum stacksize for task 0: unlimited
  | Maximum stacksize for task 1: unlimited
  | Maximum stacksize for task 2: unlimited
  | Maximum stacksize for task 3: unlimited
  | Maximum stacksize for task 4: unlimited
  | Maximum stacksize for task 5: unlimited
  | Maximum stacksize for task 6: unlimited
  | Maximum stacksize for task 7: unlimited
  | Maximum stacksize for task 8: unlimited
  | Maximum stacksize for task 9: unlimited
  | Maximum stacksize for task 10: unlimited
  | Maximum stacksize for task 11: unlimited
  | Maximum stacksize for task 12: unlimited
  | Maximum stacksize for task 13: unlimited
  | Maximum stacksize for task 14: unlimited
  | Maximum stacksize for task 15: unlimited
  | Maximum stacksize for task 16: unlimited
  | Maximum stacksize for task 17: unlimited
  | Maximum stacksize for task 18: unlimited
  | Maximum stacksize for task 19: unlimited
  | Maximum stacksize for task 20: unlimited
  | Maximum stacksize for task 21: unlimited
  | Maximum stacksize for task 22: unlimited
  | Maximum stacksize for task 23: unlimited
  | Current stacksize for task 0: unlimited
  | Current stacksize for task 1: unlimited
  | Current stacksize for task 2: unlimited
  | Current stacksize for task 3: unlimited
  | Current stacksize for task 4: unlimited
  | Current stacksize for task 5: unlimited
  | Current stacksize for task 6: unlimited
  | Current stacksize for task 7: unlimited
  | Current stacksize for task 8: unlimited
  | Current stacksize for task 9: unlimited
  | Current stacksize for task 10: unlimited
  | Current stacksize for task 11: unlimited
  | Current stacksize for task 12: unlimited
  | Current stacksize for task 13: unlimited
  | Current stacksize for task 14: unlimited
  | Current stacksize for task 15: unlimited
  | Current stacksize for task 16: unlimited
  | Current stacksize for task 17: unlimited
  | Current stacksize for task 18: unlimited
  | Current stacksize for task 19: unlimited
  | Current stacksize for task 20: unlimited
  | Current stacksize for task 21: unlimited
  | Current stacksize for task 22: unlimited
  | Current stacksize for task 23: unlimited
 
  Consistency checks for the contents of control.in are next.
 
  MPI_IN_PLACE appears to work with this MPI implementation.
  | Keeping use_mpi_in_place .true. (see manual).
  Target number of points in a grid batch is not set. Defaulting to  100
  Method for grid partitioning is not set. Defaulting to parallel hash+maxmin partitioning.
  Batch size limit is not set. Defaulting to    200
  By default, will store active basis functions for each batch.
  If in need of memory, prune_basis_once .false. can be used to disable this option.
  communication_type for Hartree potential was not specified.
  Defaulting to calc_hartree .
  Defaulting to Pulay charge density mixer.
  Pulay mixer: Number of relevant iterations not set.
  Defaulting to    8 iterations.
  Pulay mixer: Number of initial linear mixing iterations not set.
  Defaulting to    0 iterations.
  Work space size for distributed Hartree potential not set.
  Defaulting to   0.200000E+03 MB.
  Mixing parameter for charge density mixing has not been set.
  Using default: charge_mix_param =     0.0500.
  The mixing parameter will be adjusted in iteration number     2 of each s.c.f. cycle (i.e., each geometry step).
  Algorithm-dependent basis array size parameters:
  | n_max_pulay                         :        8
  Maximum number of self-consistency iterations not provided.
  Presetting  1000 iterations.
  Presetting      1001 iterations before the initial mixing cycle
  is restarted anyway using the sc_init_iter criterion / keyword.
  Presetting a factor      1.000 between actual scf density residual
  and density convergence criterion sc_accuracy_rho below which sc_init_iter
  takes no effect.
 * No s.c.f. convergence criteria (sc_accuracy_*) were provided in control.in.
 * The run will proceed with a reasonable default guess, but please check whether.
 * the s.c.f. cycles seem to take too much or too little time.
  No maximum number of relaxation steps, defaulting to     1000
  Default initial Hessian is Lindh matrix (thres = 15.00) plus  0.200000E+01 eV/A^2 times unity.
  No maximum energy tolerance for TRM/BFGS moves, defaulting to   0.150000E-02
  Maximum energy tolerance by which TRM/BFGS trajectory may increase over multiple steps:   0.300000E-02
  No harmonic length scale. Defaulting to   0.250000E-01 A.
  No trust radius initializer. Defaulting to   0.200000E+00 A.
  Unit cell relaxation: Unit cell will be relaxed fully.
  Unit cell relaxation: Analytical stress will be used.
  Analytical stress will be computed.
  Analytical stress calculation: Only the upper triangle is calculated.
                                 Final output is symmetrized.
  Analytical stress calculation: scf convergence accuracy of stress not set.
                                 Analytical stress self-consistency will not be checked explicitly.
                                 Be sure to set other criteria like sc_accuracy_rho tight enough.
  Forces evaluation will include force correction term due to incomplete self-consistency (default).
 * Notice: The s.c.f. convergence criterion sc_accuracy_rho was not provided.
 * We used to stop in this case, and ask the user to provide reasonable
 * scf convergence criteria. However, this led some users to employ criteria
 * that led to extremely long run times, e.g., for simple relaxation.
 * We now preset a default value for sc_accuracy_rho if it is not set.
 * You may still wish to check if this setting is too tight or too loose for your needs.
 * Based on n_atoms and forces and force-correction status, FHI-aims chose sc_accuracy_rho =  0.100000E-05 .
  Force calculation: scf convergence accuracy of forces not set.
  Defaulting to 'sc_accuracy_forces not_checked'.
  Handling of forces: Unphysical translation and rotation will be removed from forces.
  No accuracy limit for integral partition fn. given. Defaulting to  0.1000E-14.
  No threshold value for u(r) in integrations given. Defaulting to  0.1000E-05.
  No occupation type (smearing scheme) given. Defaulting to Gaussian broadening, width =  0.1000E-01 eV.
  The width will be adjusted in iteration number     2 of each s.c.f. cycle (i.e., each geometry step).
  No accuracy for occupation numbers given. Defaulting to  0.1000E-12.
  No threshold value for occupation numbers given. Defaulting to  0.0000E+00.
  No accuracy for fermi level given. Defaulting to  0.1000E-19.
  Maximum # of iterations to find E_F not set. Defaulting to  200.
  Preferred method for the eigenvalue solver ('KS_method') not specified in 'control.in'.
  Defaulting to serial version, LAPACK (via ELSI), since more k-points than CPUs available.
  Will not use alltoall communication since running on < 1024 CPUs.
  Threshold for basis singularities not set.
  Default threshold for basis singularities:  0.1000E-04
  partition_type (choice of integration weights) for integrals was not specified.
  | Using a version of the partition function of Stratmann and coworkers ('stratmann_sparse').
  | At each grid point, the set of atoms used to build the partition table is smoothly restricted to
  | only those atoms whose free-atom density would be non-zero at that grid point.
  Partitioning for Hartree potential was not defined. Using partition_type for integrals.
  | Adjusted default value of keyword multip_moments_threshold to:       0.10000000E-11
  | This value may affect high angular momentum components of the Hartree potential in periodic systems.
  Spin handling was not defined in control.in. Defaulting to unpolarized case.
  No q(lm)/r^(l+1) cutoff set for long-range Hartree potential.
  | Using default value of  0.100000E-09 .
  | Verify using the multipole_threshold keyword.
  Defaulting to new monopole extrapolation.
  Density update method: automatic selection selected.
  Using density matrix based charge density update.
  Using density matrix based charge density update.
  Using packed matrix style: index .
  Geometry relaxation: A file "geometry.in.next_step" is written out by default after each step.
  | This file contains the geometry of the current relaxation step as well as
  | the current Hessian matrix needed to restart the relaxation algorithm.
  | If you do not want part or all of this information, use the keywords
  | "write_restart_geometry" or "hessian_to_restart_geometry" to switch the output off.
  Defaulting to use time-reversal symmetry for k-point grid.
  Charge integration errors on the 3D integration grid will be compensated
  by explicit normalization and distribution of residual charges.
  Use the "compensate_multipole_errors" flag to change this behaviour.
  Set 'collect_eigenvectors' to be '.true.' for all serial calculations. This is mandatory.
  Set 'collect_eigenvectors' to be '.true.' for KS_method lapack_fast and serial.
  Found potential conflicts with setting 'use_local_index' for this calculation. Will not set it.
 
  Consistency checks for the contents of geometry.in are next.
 

  Range separation radius for Ewald summation (hartree_convergence_parameter):      3.02465203 bohr.
  Number of empty states per atom not set in control.in - providing a guess from actual geometry.
  | Total number of empty states used during s.c.f. cycle:       23
  If you use a very high smearing, use empty_states (per atom!) in control.in to increase this value.

  Structure-dependent array size parameters: 
  | Maximum number of distinct radial functions  :       17
  | Maximum number of basis functions            :      118
  | Number of Kohn-Sham states (occupied + empty):       61
------------------------------------------------------------
  After read_input_data [GB]:   1046.19

  Performing system and environment tests:
  *** Environment variable OMP_NUM_THREADS is not set
  *** For performance reasons you might want to set it to 1
  | Checking for ScaLAPACK...
  | Testing pdtran()...
  | All pdtran() tests passed.
  After prepare_system [GB]:   1046.06

------------------------------------------------------------
          Preparing all fixed parts of the calculation.
------------------------------------------------------------
  Determining machine precision:
    2.225073858507201E-308
  Setting up grids for atomic and cluster calculations.

  Creating wave function, potential, and density for free atoms.
  Runtime choices for atomic solver:
  | atomic solver xc        : PBE
  | compute density gradient: 1
  | compute kinetic density : F

  Species: Ti

  List of occupied orbitals and eigenvalues:
    n    l              occ      energy [Ha]    energy [eV]
    1    0           2.0000      -179.959082     -4896.9358
    2    0           2.0000       -19.727662      -536.8170
    3    0           2.0000        -2.283029       -62.1244
    4    0           2.0000        -0.148384        -4.0377
    2    1           6.0000       -16.317278      -444.0157
    3    1           6.0000        -1.409348       -38.3503
    3    2           2.0000        -0.139340        -3.7916


  Species: O

  List of occupied orbitals and eigenvalues:
    n    l              occ      energy [Ha]    energy [eV]
    1    0           2.0000       -18.926989      -515.0296
    2    0           2.0000        -0.880247       -23.9527
    2    1           4.0000        -0.331514        -9.0210


  Adding cutoff potential to free-atom effective potential.
  Creating fixed part of basis set: Ionic, confined, hydrogenic.
 
  Ti                   ion:

  List of free ionic orbitals and eigenvalues:
    n    l      energy [Ha]    energy [eV]
    1    0      -180.819616     -4920.3521
    2    0       -20.608761      -560.7929
    3    0        -3.115729       -84.7833
    4    0        -0.697188       -18.9715
    2    1       -17.196209      -467.9327
    3    1        -2.231296       -60.7167
    3    2        -0.911363       -24.7995


  List of ionic basis orbitals and eigenvalues:
    n    l      energy [Ha]    energy [eV]    outer radius [A]
    4    1        -0.517739       -14.0884       4.592117
    4    0        -0.696824       -18.9615       4.536321

 
  Ti                   hydrogenic:
 
  List of hydrogenic basis orbitals: 
    n    l      effective z      eigenvalue [eV]  inner max. [A]     outer max. [A]     outer radius [A]   
    4    3         8.000000       -54.4222           1.059019           1.059019           4.267343
    3    2         2.700000       -10.7798           1.726925           1.726925           4.592117
 
 
  O                    hydrogenic:
 
  List of hydrogenic basis orbitals: 
    n    l      effective z      eigenvalue [eV]  inner max. [A]     outer max. [A]     outer radius [A]   
    2    1         1.800000       -10.9749           1.164242           1.164242           4.578029
    3    2         7.600000       -87.3180           0.624125           0.624125           3.251020
    3    0         6.400000       -61.9207           0.061167           1.081902           4.001998
 
  Creating atomic-like basis functions for current effective potential.

  Species Ti                  :

  List of atomic basis orbitals and eigenvalues:
    n    l      energy [Ha]    energy [eV]    outer radius [A]
    1    0      -179.959082     -4896.9358       0.490254
    2    0       -19.727662      -536.8170       1.491292
    3    0        -2.283029       -62.1244       4.014314
    4    0        -0.148384        -4.0377       4.592117
    2    1       -16.317278      -444.0157       1.585290
    3    1        -1.409348       -38.3503       4.267343
    3    2        -0.139340        -3.7916       4.536321


  Species O                   :

  List of atomic basis orbitals and eigenvalues:
    n    l      energy [Ha]    energy [eV]    outer radius [A]
    1    0       -18.926989      -515.0296       1.415765
    2    0        -0.880247       -23.9527       4.413171
    2    1        -0.331514        -9.0210       4.522403

  Assembling full basis from fixed parts.
  | Species Ti :   atomic orbital   1 s accepted.
  | Species Ti :   atomic orbital   2 s accepted.
  | Species Ti :   atomic orbital   3 s accepted.
  | Species Ti :    ionic orbital   4 s accepted.
  | Species Ti :   atomic orbital   4 s accepted.
  | Species Ti :   atomic orbital   2 p accepted.
  | Species Ti :   atomic orbital   3 p accepted.
  | Species Ti :    ionic orbital   4 p accepted.
  | Species Ti :   atomic orbital   3 d accepted.
  | Species Ti :    hydro orbital   3 d accepted.
  | Species Ti :    hydro orbital   4 f accepted.
  | Species O :   atomic orbital   1 s accepted.
  | Species O :    hydro orbital   3 s accepted.
  | Species O :   atomic orbital   2 s accepted.
  | Species O :   atomic orbital   2 p accepted.
  | Species O :    hydro orbital   2 p accepted.
  | Species O :    hydro orbital   3 d accepted.
 
  Basis size parameters after reduction:
  | Total number of radial functions:       17
  | Total number of basis functions :      118
 
  Per-task memory consumption for arrays in subroutine allocate_ext:
  |           6.022728MB.
  Testing on-site integration grid accuracy.
  |  Species  Function  <phi|h_atom|phi> (log., in eV)  <phi|h_atom|phi> (rad., in eV)
           1        1              -4896.9357674450              -4896.9322830202
           1        2               -536.8170048508               -536.8169722333
           1        3                -62.1243896260                -62.1243889283
           1        4                 -3.2653235630                 -3.2692838808
           1        5                  6.7987747276                  6.5460721883 ***
           1        6               -444.0157161949               -444.0157165810
           1        7                -38.3503235548                -38.3503234963
           1        8                  0.2923930877                  0.2745948116
           1        9                 -3.7933400649                 -3.7959244177
           1       10                  6.3288803616                  6.2510614929 ***
           1       11                 27.8451455747                 27.8452636416
           2       12               -515.0295626295               -515.0294562738
           2       13                 15.1698434419                 15.1699322204
           2       14                -21.6038822678                -21.6039118105
           2       15                 -9.0211123393                 -9.0212703513
           2       16                  8.3047696391                  8.2854840999
           2       17                 45.8428042125                 45.8427461222
 * Note: Onsite integrals marked "***" above are less accurate than
 * onsite_accuracy_threshold =    0.03000 eV. Usually, this is harmless.
 * When in doubt, tighten the "radial" and/or "radial_multiplier" flags to check.

  Preparing densities etc. for the partition functions (integrals / Hartree potential).

  Preparations completed.
  max(cpu_time)          :      0.206 s.
  Wall clock time (cpu1) :      0.205 s.
------------------------------------------------------------
  After prepare_scf [GB]:   1045.67

  Initializing index lists of integration centers etc. from given atomic structure:
  Mapping all atomic coordinates to central unit cell.

  Initializing the k-points
  Using symmetry for reducing the k-points
  | k-points reduced from:      512 to      260
  | Number of k-points                             :       260
  The eigenvectors in the calculations are COMPLEX.
  | K-points in task   0:        10
  | K-points in task   1:        11
  | K-points in task   2:        11
  | K-points in task   3:        11
  | K-points in task   4:        11
  | K-points in task   5:        11
  | K-points in task   6:        11
  | K-points in task   7:        11
  | K-points in task   8:        11
  | K-points in task   9:        11
  | K-points in task  10:        11
  | K-points in task  11:        11
  | K-points in task  12:        11
  | K-points in task  13:        11
  | K-points in task  14:        11
  | K-points in task  15:        11
  | K-points in task  16:        11
  | K-points in task  17:        11
  | K-points in task  18:        11
  | K-points in task  19:        11
  | K-points in task  20:        11
  | K-points in task  21:        10
  | K-points in task  22:        10
  | K-points in task  23:        10
  | Number of basis functions in the Hamiltonian integrals :      2803
  | Number of basis functions in a single unit cell        :       118
  | Number of centers in hartree potential         :      1194
  | Number of centers in hartree multipole         :       795
  | Number of centers in electron density summation:       568
  | Number of centers in basis integrals           :       613
  | Number of centers in integrals                 :       197
  | Number of centers in hamiltonian               :       582
  | Consuming        576 KiB for k_phase.
  | Number of super-cells (origin) [n_cells]                     :         891
  | Number of super-cells (after PM_index) [n_cells]             :         142
  | Number of super-cells in hamiltonian [n_cells_in_hamiltonian]:         142
  | Size of matrix packed + index [n_hamiltonian_matrix_size] :      272239
  After initialize_bc_dependent_lists [GB]:   1045.62

------------------------------------------------------------
          Begin self-consistency loop: Initialization.

          Date     :  20240627, Time     :  161024.300
------------------------------------------------------------

  Initializing relaxation algorithms.
  Finished initialization of distributed Hessian storage.
  | Global dimension:        27
  | BLACS block size:         2
  | Number of workers:       14

  Available memory per node after initialize_hartree_non_periodic_ewald [GB]:   1045.62
  | Estimated reciprocal-space cutoff momentum G_max:         3.12346377 bohr^-1 .
  | Reciprocal lattice points for long-range Hartree potential:     208
  Available memory per node after initialize_recip_hartree_potential [GB]:   1045.62
  Available memory per node after initialize_scalapack [GB]:   1045.62
  Available memory per node after aims_elsi_init_scf [GB]:   1045.62
  Available memory per node after initialize_fixed_grids [GB]:   1045.62
  Partitioning the integration grid into batches with parallel hashing+maxmin method.
  | Number of batches:      491
  | Maximal batch size:     115
  | Minimal batch size:      56
  | Average batch size:      78.061
  | Standard deviation of batch sizes:      12.658

  Integration load balanced across    24 MPI tasks.
  Work distribution over tasks is as follows:
  Task     0 has       1555 integration points.
  Task     1 has       1631 integration points.
  Task     2 has       1641 integration points.
  Task     3 has       1562 integration points.
  Task     4 has       1603 integration points.
  Task     5 has       1544 integration points.
  Task     6 has       1554 integration points.
  Task     7 has       1570 integration points.
  Task     8 has       1625 integration points.
  Task     9 has       1616 integration points.
  Task    10 has       1603 integration points.
  Task    11 has       1596 integration points.
  Task    12 has       1616 integration points.
  Task    13 has       1561 integration points.
  Task    14 has       1631 integration points.
  Task    15 has       1564 integration points.
  Task    16 has       1606 integration points.
  Task    17 has       1619 integration points.
  Task    18 has       1604 integration points.
  Task    19 has       1618 integration points.
  Task    20 has       1565 integration points.
  Task    21 has       1611 integration points.
  Task    22 has       1611 integration points.
  Task    23 has       1622 integration points.
  Available memory per node after partition_grid [GB]:   1045.62
  Initializing partition tables, free-atom densities, potentials, etc. across the integration grid (initialize_grid_storage).
  | initialize_grid_storage: Actual outermost partition radius vs. multipole_radius_free
  | (-- VB: in principle, multipole_radius_free should be larger, hence this output)
  | Species        1: Confinement radius =              4.999999999999999 AA, multipole_radius_free =              5.002391649902235 AA.
  | Species        1: outer_partition_radius set to              5.002391649902235 AA .
  | Species        2: Confinement radius =              4.999999999999999 AA, multipole_radius_free =              5.048384829883283 AA.
  | Species        2: outer_partition_radius set to              5.048384829883283 AA .
  | The sparse table of interatomic distances needs       1595.53 kbyte instead of      3006.15 kbyte of memory.
  | Net number of integration points:    38328
  | of which are non-zero points    :    31144
  | Numerical average free-atom electrostatic potential    :    -18.17617952 eV
  Available memory per node after initialize_grid_storage_p1 [GB]:   1045.58
  Renormalizing the initial density to the exact electron count on the 3D integration grid.
  | Initial density: Formal number of electrons (from input files) :      76.0000000000
  | Integrated number of electrons on 3D grid     :      75.9997063041
  | Charge integration error                      :      -0.0002936959
  | Normalization factor for density and gradient :       1.0000038644
  Renormalizing the free-atom superposition density to the exact electron count on the 3D integration grid.
  | Formal number of electrons (from input files) :      76.0000000000
  | Integrated number of electrons on 3D grid     :      75.9997063041
  | Charge integration error                      :      -0.0002936959
  | Normalization factor for density and gradient :       1.0000038644
  Obtaining max. number of non-zero basis functions in each batch (get_n_compute_maxes).
  | Maximal number of non-zero basis functions:      871 in task     0
  | Maximal number of non-zero basis functions:      846 in task     1
  | Maximal number of non-zero basis functions:      865 in task     2
  | Maximal number of non-zero basis functions:      882 in task     3
  | Maximal number of non-zero basis functions:      830 in task     4
  | Maximal number of non-zero basis functions:      805 in task     5
  | Maximal number of non-zero basis functions:      784 in task     6
  | Maximal number of non-zero basis functions:      816 in task     7
  | Maximal number of non-zero basis functions:      806 in task     8
  | Maximal number of non-zero basis functions:      838 in task     9
  | Maximal number of non-zero basis functions:      876 in task    10
  | Maximal number of non-zero basis functions:      837 in task    11
  | Maximal number of non-zero basis functions:      836 in task    12
  | Maximal number of non-zero basis functions:      804 in task    13
  | Maximal number of non-zero basis functions:      857 in task    14
  | Maximal number of non-zero basis functions:      859 in task    15
  | Maximal number of non-zero basis functions:      902 in task    16
  | Maximal number of non-zero basis functions:      895 in task    17
  | Maximal number of non-zero basis functions:      883 in task    18
  | Maximal number of non-zero basis functions:      895 in task    19
  | Maximal number of non-zero basis functions:      877 in task    20
  | Maximal number of non-zero basis functions:      817 in task    21
  | Maximal number of non-zero basis functions:      813 in task    22
  | Maximal number of non-zero basis functions:      890 in task    23
  Available memory per node after get_n_compute_maxes_p1 [GB]:   1045.57
  Allocating        1.098 MB for KS_eigenvector_complex
  Available memory per node after allocate_matrices [GB]:   1045.54
  Available memory per node after init_comm_sparse_local_matrix_scalapack [GB]:   1045.54
  Integrating Hamiltonian matrix: batch-based integration.
  Time summed over all CPUs for integration: real work        2.572 s, elapsed        2.698 s
  Available memory per node after integrate hamiltonian matrix [GB]:   1045.27
  Integrating overlap matrix.
  Time summed over all CPUs for integration: real work        1.737 s, elapsed        1.835 s
  Available memory per node after integrate ovlp matrix [GB]:   1045.18
  Available memory per node after ASI_callbacks invoke [GB]:   1045.18
  Available memory per node after save_overlap_scalapack [GB]:   1045.18

  Updating Kohn-Sham eigenvalues and eigenvectors using ELSI and the (modified) LAPACK eigensolver.
  Singularity check in k-point 24, task 0 (analysis for other k-points/tasks may follow below):
  Overlap matrix is not singular
  | Lowest and highest eigenvalues :  0.5742E-03,  0.8876E+01
  Finished singularity check of overlap matrix
  | Time :     0.002 s
  Starting LAPACK eigensolver
  Finished Cholesky decomposition
  | Time :     0.000 s
  Finished transformation to standard eigenproblem
  | Time :     0.001 s
  Finished solving standard eigenproblem
  | Time :     0.002 s
  Finished back-transformation of eigenvectors
  | Time :     0.000 s

  Obtaining occupation numbers and electronic chemical potential using ELSI.
  | Note that, for insulating systems, the printed 'chemical potential' value is not uniquely defined.
  | It can be anywhere in the energy gap, as long as it correctly separates occupied and unoccupied states.
  | In systems with a gap, the physically relevant chemical potential is the VBM or HOMO.

  | Chemical potential (Fermi level):    -7.15343494 eV
  Available memory per node after advance_KS_solution [GB]:   1045.17
  Writing Kohn-Sham eigenvalues.
  K-point:       1 at    0.000000    0.000000    0.000000 (in units of recip. lattice)

  State    Occupation    Eigenvalue [Ha]    Eigenvalue [eV]
      1       2.00000        -180.020698        -4898.61244
      2       2.00000        -179.964873        -4897.09335
      3       2.00000         -19.795616         -538.66611
      4       2.00000         -19.734063         -536.99117
      5       2.00000         -19.195684         -522.34114
      6       2.00000         -19.195682         -522.34108
      7       2.00000         -19.041045         -518.13320
      8       2.00000         -19.041045         -518.13320
      9       2.00000         -16.389407         -445.97845
     10       2.00000         -16.381593         -445.76582
     11       2.00000         -16.381262         -445.75683
     12       2.00000         -16.323673         -444.18973
     13       2.00000         -16.323617         -444.18822
     14       2.00000         -16.323419         -444.18284
     15       2.00000          -2.471608          -67.25587
     16       2.00000          -2.297986          -62.53137
     17       2.00000          -1.855859          -50.50048
     18       2.00000          -1.530631          -41.65059
     19       2.00000          -1.526612          -41.54122
     20       2.00000          -1.437306          -39.11107
     21       2.00000          -1.423923          -38.74691
     22       2.00000          -1.420578          -38.65588
     23       2.00000          -1.150697          -31.31205
     24       2.00000          -1.067788          -29.05600
     25       2.00000          -1.014237          -27.59878
     26       2.00000          -0.921336          -25.07082
     27       2.00000          -0.714068          -19.43078
     28       2.00000          -0.683026          -18.58608
     29       2.00000          -0.675788          -18.38912
     30       2.00000          -0.583437          -15.87614
     31       2.00000          -0.546937          -14.88291
     32       2.00000          -0.546589          -14.87344
     33       2.00000          -0.534627          -14.54794
     34       2.00000          -0.469453          -12.77445
     35       2.00000          -0.469415          -12.77343
     36       2.00000          -0.461530          -12.55887
     37       2.00000          -0.457161          -12.43999
     38       2.00000          -0.269207           -7.32550
     39       0.00000          -0.251762           -6.85079
     40       0.00000          -0.223124           -6.07151
     41       0.00000          -0.168691           -4.59030
     42       0.00000          -0.150893           -4.10601
     43       0.00000          -0.146186           -3.97793
     44       0.00000          -0.141091           -3.83927
     45       0.00000          -0.075126           -2.04429
     46       0.00000          -0.070598           -1.92107
     47       0.00000          -0.058823           -1.60066
     48       0.00000          -0.044349           -1.20679
     49       0.00000           0.079664            2.16776
     50       0.00000           0.083687            2.27725
     51       0.00000           0.085682            2.33152
     52       0.00000           0.165040            4.49097
     53       0.00000           0.236182            6.42684
     54       0.00000           0.290807            7.91325
     55       0.00000           0.312049            8.49128
     56       0.00000           0.370841           10.09111
     57       0.00000           0.418531           11.38881
     58       0.00000           0.615074           16.73702
     59       0.00000           0.676983           18.42165
     60       0.00000           0.693537           18.87211
     61       0.00000           0.696407           18.95020

  What follows are estimated values for band gap, HOMO, LUMO, etc.
  | They are estimated on a discrete k-point grid and not necessarily exact.
  | For converged numbers, create a DOS and/or band structure plot on a denser k-grid.

  Highest occupied state (VBM) at     -7.32550425 eV (relative to internal zero)
  | Occupation number:      2.00000000
  | K-point:       1 at    0.000000    0.000000    0.000000 (in units of recip. lattice)

  Lowest unoccupied state (CBM) at    -7.07295186 eV (relative to internal zero)
  | Occupation number:      0.00000000
  | K-point:     202 at    0.500000    0.500000    0.000000 (in units of recip. lattice)

  ESTIMATED overall HOMO-LUMO gap:      0.25255239 eV between HOMO at k-point 1 and LUMO at k-point 202
  | This appears to be an indirect band gap.
  | Smallest direct gap :      0.30390560 eV for k_point 202 at    0.500000    0.500000    0.000000 (in units of recip. lattice)
  The gap value is above 0.2 eV. Unless you are using a very sparse k-point grid,
  this system is most likely an insulator or a semiconductor.
  Calculating total energy contributions from superposition of free atom densities.

  Total energy components:
  | Sum of eigenvalues            :       -1197.39603105 Ha      -32582.80379955 eV
  | XC energy correction          :        -118.68850972 Ha       -3229.67867373 eV
  | XC potential correction       :         153.49934545 Ha        4176.92970959 eV
  | Free-atom electrostatic energy:        -850.80121301 Ha      -23151.47894030 eV
  | Hartree energy correction     :           0.00000000 Ha           0.00000000 eV
  | Entropy correction            :          -0.00000000 Ha          -0.00000000 eV
  | ---------------------------
  | Total energy                  :       -2013.38640832 Ha      -54787.03170399 eV
  | Total energy, T -> 0          :       -2013.38640832 Ha      -54787.03170399 eV  <-- do not rely on this value for anything but (periodic) metals
  | Electronic free energy        :       -2013.38640832 Ha      -54787.03170399 eV

  Derived energy quantities:
  | Kinetic energy                :        2028.75456923 Ha       55205.22063938 eV
  | Electrostatic energy          :       -3923.45246783 Ha     -106762.57366964 eV
  | Energy correction for multipole
  | error in Hartree potential    :           0.00000000 Ha           0.00000000 eV
  | Sum of eigenvalues per atom                           :       -5430.46729992 eV
  | Total energy (T->0) per atom                          :       -9131.17195066 eV  <-- do not rely on this value for anything but (periodic) metals
  | Electronic free energy per atom                       :       -9131.17195066 eV
  Initialize hartree_potential_storage
  Max. number of atoms included in rho_multipole:            6

  End scf initialization - timings             :  max(cpu_time)    wall_clock(cpu1)
  | Time for scf. initialization                :        0.397 s           0.400 s
  | Boundary condition initialization           :        0.028 s           0.028 s
  | Relaxation initialization                   :        0.005 s           0.008 s
  | Integration                                 :        0.204 s           0.203 s
  | Solution of K.-S. eqns.                     :        0.076 s           0.077 s
  | Grid partitioning                           :        0.016 s           0.016 s
  | Preloading free-atom quantities on grid     :        0.086 s           0.087 s
  | Free-atom superposition energy              :        0.009 s           0.008 s
  | Total energy evaluation                     :        0.000 s           0.001 s

  Partial memory accounting:
  | Current value for overall tracked memory usage:
  |   Minimum:        6.341 MB (on task 21)
  |   Maximum:        6.451 MB (on task  1)
  |   Average:        6.432 MB
  | Peak value for overall tracked memory usage:
  |   Minimum:       13.222 MB (on task  6 after allocating wave)
  |   Maximum:       15.053 MB (on task 16 after allocating wave)
  |   Average:       14.200 MB
  | Largest tracked array allocation so far:
  |   Minimum:        4.689 MB (hamiltonian_shell on task  6)
  |   Maximum:        6.207 MB (hamiltonian_shell on task 16)
  |   Average:        5.512 MB
  Note:  These values currently only include a subset of arrays which are explicitly tracked.
  The "true" memory usage will be greater.
------------------------------------------------------------
  Available memory after initialize_scf [GB]:   1045.17
  Available memory after allocating mixing [GB]:   1045.17
  Evaluating new KS density using the density matrix
  Evaluating density matrix
  Time summed over all CPUs for getting density from density matrix: real work        5.362 s, elapsed        5.692 s
  Integration grid: deviation in total charge (<rho> - N_e) =   1.421085E-14

  Time for density update prior                :  max(cpu_time)    wall_clock(cpu1)
  | self-consistency iterative process          :        0.247 s           0.247 s
  Available memory before start of SCF loop [GB]:   1045.05

------------------------------------------------------------
          Begin self-consistency iteration #    1

  Date     :  20240627, Time     :  161024.947
------------------------------------------------------------
  Pulay mixing of updated and previous charge densities.
  Available memory per node after mixing [GB]:   1045.05
  Renormalizing the density to the exact electron count on the 3D integration grid.
  | Formal number of electrons (from input files) :      76.0000000000
  | Integrated number of electrons on 3D grid     :      76.0000000000
  | Charge integration error                      :       0.0000000000
  | Normalization factor for density and gradient :       1.0000000000

  Evaluating partitioned Hartree potential by multipole expansion.
  | Original multipole sum: apparent total charge =   0.128637E-12
  | Sum of charges compensated after spline to logarithmic grids =   0.201463E-06
  | Analytical far-field extrapolation by fixed multipoles:
  | Hartree multipole sum: apparent total charge =   0.128532E-12
  Summing up the Hartree potential.
  Time summed over all CPUs for potential: real work        0.023 s, elapsed        0.025 s
  | RMS charge density error from multipole expansion :   0.145928E-02
  | Average real-space part of the electrostatic potential :      0.09391291 eV

  Integrating Hamiltonian matrix: batch-based integration.
  Time summed over all CPUs for integration: real work        2.527 s, elapsed        2.673 s

  Updating Kohn-Sham eigenvalues and eigenvectors using ELSI and the (modified) LAPACK eigensolver.
  Starting LAPACK eigensolver
  Finished Cholesky decomposition
  | Time :     0.001 s
  Finished transformation to standard eigenproblem
  | Time :     0.000 s
  Finished solving standard eigenproblem
  | Time :     0.002 s
  Finished back-transformation of eigenvectors
  | Time :     0.000 s

  Obtaining occupation numbers and electronic chemical potential using ELSI.
  | Note that, for insulating systems, the printed 'chemical potential' value is not uniquely defined.
  | It can be anywhere in the energy gap, as long as it correctly separates occupied and unoccupied states.
  | In systems with a gap, the physically relevant chemical potential is the VBM or HOMO.

  | Chemical potential (Fermi level):    -6.92117845 eV
  Writing Kohn-Sham eigenvalues.
  K-point:       1 at    0.000000    0.000000    0.000000 (in units of recip. lattice)

  State    Occupation    Eigenvalue [Ha]    Eigenvalue [eV]
      1       2.00000        -180.023674        -4898.69341
      2       2.00000        -179.992817        -4897.85374
      3       2.00000         -19.791091         -538.54299
      4       2.00000         -19.771030         -537.99711
      5       2.00000         -19.143384         -520.91797
      6       2.00000         -19.143382         -520.91794
      7       2.00000         -18.997431         -516.94641
      8       2.00000         -18.997431         -516.94641
      9       2.00000         -16.381077         -445.75179
     10       2.00000         -16.380882         -445.74647
     11       2.00000         -16.380840         -445.74532
     12       2.00000         -16.363804         -445.28176
     13       2.00000         -16.356918         -445.09439
     14       2.00000         -16.356666         -445.08753
     15       2.00000          -2.449202          -66.64617
     16       2.00000          -2.340497          -63.68816
     17       2.00000          -1.828796          -49.76408
     18       2.00000          -1.511630          -41.13354
     19       2.00000          -1.506215          -40.98619
     20       2.00000          -1.475456          -40.14921
     21       2.00000          -1.464640          -39.85488
     22       2.00000          -1.462572          -39.79861
     23       2.00000          -1.124525          -30.59989
     24       2.00000          -1.046828          -28.48564
     25       2.00000          -0.993561          -27.03618
     26       2.00000          -0.901994          -24.54450
     27       2.00000          -0.691992          -18.83005
     28       2.00000          -0.658216          -17.91097
     29       2.00000          -0.656686          -17.86935
     30       2.00000          -0.567654          -15.44666
     31       2.00000          -0.522488          -14.21761
     32       2.00000          -0.522338          -14.21354
     33       2.00000          -0.513880          -13.98339
     34       2.00000          -0.449390          -12.22853
     35       2.00000          -0.448742          -12.21090
     36       2.00000          -0.438829          -11.94113
     37       2.00000          -0.437759          -11.91204
     38       2.00000          -0.270596           -7.36328
     39       0.00000          -0.244736           -6.65961
     40       0.00000          -0.219087           -5.96165
     41       0.00000          -0.188638           -5.13311
     42       0.00000          -0.175343           -4.77134
     43       0.00000          -0.175035           -4.76295
     44       0.00000          -0.161205           -4.38662
     45       0.00000          -0.074614           -2.03034
     46       0.00000          -0.065185           -1.77377
     47       0.00000          -0.048595           -1.32233
     48       0.00000          -0.029855           -0.81239
     49       0.00000           0.079594            2.16586
     50       0.00000           0.081476            2.21708
     51       0.00000           0.088509            2.40846
     52       0.00000           0.169961            4.62487
     53       0.00000           0.232773            6.33408
     54       0.00000           0.294234            8.00652
     55       0.00000           0.321368            8.74488
     56       0.00000           0.376429           10.24316
     57       0.00000           0.407398           11.08586
     58       0.00000           0.633791           17.24632
     59       0.00000           0.689015           18.74905
     60       0.00000           0.705623           19.20099
     61       0.00000           0.715541           19.47087

  What follows are estimated values for band gap, HOMO, LUMO, etc.
  | They are estimated on a discrete k-point grid and not necessarily exact.
  | For converged numbers, create a DOS and/or band structure plot on a denser k-grid.

  Highest occupied state (VBM) at     -6.92978578 eV (relative to internal zero)
  | Occupation number:      1.77649474
  | K-point:      27 at    0.000000    0.500000    0.500000 (in units of recip. lattice)

  Lowest unoccupied state (CBM) at    -6.91120676 eV (relative to internal zero)
  | Occupation number:      0.15847764
  | K-point:     206 at    0.500000    0.500000    0.875000 (in units of recip. lattice)

  ESTIMATED overall HOMO-LUMO gap:      0.01857902 eV between HOMO at k-point 27 and LUMO at k-point 206
  | This appears to be an indirect band gap.
  | Smallest direct gap :      0.06153207 eV for k_point 242 at    0.750000    0.750000    0.875000 (in units of recip. lattice)
  However, this system has fractional occupation numbers. Since we use a finite k-point grid,
  this material is metallic within the approximate finite broadening function (occupation_type)
  applied to determine the occupation numbers.

  Total energy components:
  | Sum of eigenvalues            :       -1196.82863733 Ha      -32567.36423093 eV
  | XC energy correction          :        -118.76885890 Ha       -3231.86508620 eV
  | XC potential correction       :         153.60286304 Ha        4179.74656637 eV
  | Free-atom electrostatic energy:        -850.80121301 Ha      -23151.47894030 eV
  | Hartree energy correction     :          -0.43935837 Ha         -11.95554955 eV
  | Entropy correction            :          -0.00000047 Ha          -0.00001276 eV
  | ---------------------------
  | Total energy                  :       -2013.23520457 Ha      -54782.91724060 eV
  | Total energy, T -> 0          :       -2013.23520504 Ha      -54782.91725336 eV  <-- do not rely on this value for anything but (periodic) metals
  | Electronic free energy        :       -2013.23520551 Ha      -54782.91726612 eV

  Derived energy quantities:
  | Kinetic energy                :        2029.46824663 Ha       55224.64078967 eV
  | Electrostatic energy          :       -3923.93459231 Ha     -106775.69294407 eV
  | Energy correction for multipole
  | error in Hartree potential    :           0.00149900 Ha           0.04078977 eV
  | Sum of eigenvalues per atom                           :       -5427.89403849 eV
  | Total energy (T->0) per atom                          :       -9130.48620889 eV  <-- do not rely on this value for anything but (periodic) metals
  | Electronic free energy per atom                       :       -9130.48621102 eV
  Evaluating new KS density using the density matrix
  Evaluating density matrix
  Time summed over all CPUs for getting density from density matrix: real work        5.246 s, elapsed        5.542 s
  Integration grid: deviation in total charge (<rho> - N_e) =   9.947598E-14

  Self-consistency convergence accuracy:
  | Change of charge density      :  0.8384E+00
  | Change of unmixed KS density  :  0.7221E+02
  | Change of sum of eigenvalues  :  0.1544E+02 eV
  | Change of total energy        :  0.4114E+01 eV


------------------------------------------------------------
  End self-consistency iteration #     1       :  max(cpu_time)    wall_clock(cpu1)
  | Time for this iteration                     :        0.449 s           0.449 s
  | Charge density update                       :        0.239 s           0.239 s
  | Density mixing                              :        0.000 s           0.000 s
  | Hartree multipole update                    :        0.001 s           0.001 s
  | Hartree multipole summation                 :        0.027 s           0.027 s
  | Integration                                 :        0.115 s           0.115 s
  | Solution of K.-S. eqns.                     :        0.066 s           0.066 s
  | Total energy evaluation                     :        0.000 s           0.000 s

  Partial memory accounting:
  | Current value for overall tracked memory usage:
  |   Minimum:        7.207 MB (on task  0)
  |   Maximum:        7.365 MB (on task  2)
  |   Average:        7.322 MB
  | Peak value for overall tracked memory usage:
  |   Minimum:       16.133 MB (on task  6 after allocating gradient_basis_wave)
  |   Maximum:       18.301 MB (on task 16 after allocating gradient_basis_wave)
  |   Average:       17.305 MB
  | Largest tracked array allocation so far:
  |   Minimum:        4.689 MB (hamiltonian_shell on task  6)
  |   Maximum:        6.207 MB (hamiltonian_shell on task 16)
  |   Average:        5.512 MB
  Note:  These values currently only include a subset of arrays which are explicitly tracked.
  The "true" memory usage will be greater.
------------------------------------------------------------

------------------------------------------------------------
          Begin self-consistency iteration #    2

  Date     :  20240627, Time     :  161025.397
------------------------------------------------------------
  Pulay mixing of updated and previous charge densities.
  Available memory per node after mixing [GB]:   1045.01
  Renormalizing the density to the exact electron count on the 3D integration grid.
  | Formal number of electrons (from input files) :      76.0000000000
  | Integrated number of electrons on 3D grid     :      76.0000000000
  | Charge integration error                      :      -0.0000000000
  | Normalization factor for density and gradient :       1.0000000000

  Evaluating partitioned Hartree potential by multipole expansion.
  | Original multipole sum: apparent total charge =   0.544225E-13
  | Sum of charges compensated after spline to logarithmic grids =   0.460618E-06
  | Analytical far-field extrapolation by fixed multipoles:
  | Hartree multipole sum: apparent total charge =   0.543118E-13
  Summing up the Hartree potential.
  Time summed over all CPUs for potential: real work        0.025 s, elapsed        0.026 s
  | RMS charge density error from multipole expansion :   0.559183E-02
  | Average real-space part of the electrostatic potential :      0.35028884 eV

  Integrating Hamiltonian matrix: batch-based integration.
  Time summed over all CPUs for integration: real work        2.524 s, elapsed        2.672 s

  Updating Kohn-Sham eigenvalues and eigenvectors using ELSI and the (modified) LAPACK eigensolver.
  Starting LAPACK eigensolver
  Finished Cholesky decomposition
  | Time :     0.001 s
  Finished transformation to standard eigenproblem
  | Time :     0.000 s
  Finished solving standard eigenproblem
  | Time :     0.002 s
  Finished back-transformation of eigenvectors
  | Time :     0.000 s

  Obtaining occupation numbers and electronic chemical potential using ELSI.
  | Note that, for insulating systems, the printed 'chemical potential' value is not uniquely defined.
  | It can be anywhere in the energy gap, as long as it correctly separates occupied and unoccupied states.
  | In systems with a gap, the physically relevant chemical potential is the VBM or HOMO.

  | Chemical potential (Fermi level):    -7.43952742 eV
  What follows are estimated values for band gap, HOMO, LUMO, etc.
  | They are estimated on a discrete k-point grid and not necessarily exact.
  | For converged numbers, create a DOS and/or band structure plot on a denser k-grid.

  Highest occupied state (VBM) at     -7.44545350 eV (relative to internal zero)
  | Occupation number:      1.59801103
  | K-point:     116 at    0.250000    0.625000    0.500000 (in units of recip. lattice)

  Lowest unoccupied state (CBM) at    -7.43482591 eV (relative to internal zero)
  | Occupation number:      0.50611768
  | K-point:     169 at    0.375000    0.750000    0.375000 (in units of recip. lattice)

  ESTIMATED overall HOMO-LUMO gap:      0.01062760 eV between HOMO at k-point 116 and LUMO at k-point 169
  | This appears to be an indirect band gap.
  | Smallest direct gap :      0.27083660 eV for k_point 116 at    0.250000    0.625000    0.500000 (in units of recip. lattice)
  However, this system has fractional occupation numbers. Since we use a finite k-point grid,
  this material is metallic within the approximate finite broadening function (occupation_type)
  applied to determine the occupation numbers.

  Checking to see if s.c.f. parameters should be adjusted.
  Adjusted the Pulay mixing parameter (charge_mix_param) for an expected low-gap system. New value:   0.020000 .
  Adjusted the occupation broadening width for an expected low-gap system. New value:      0.05000000 eV.

  Total energy components:
  | Sum of eigenvalues            :       -1195.68649726 Ha      -32536.28501832 eV
  | XC energy correction          :        -118.97573876 Ha       -3237.49457350 eV
  | XC potential correction       :         153.86912052 Ha        4186.99180107 eV
  | Free-atom electrostatic energy:        -850.80121301 Ha      -23151.47894030 eV
  | Hartree energy correction     :          -1.48184157 Ha         -40.32296061 eV
  | Entropy correction            :          -0.00003271 Ha          -0.00089018 eV
  | ---------------------------
  | Total energy                  :       -2013.07617007 Ha      -54778.58969166 eV
  | Total energy, T -> 0          :       -2013.07620279 Ha      -54778.59058183 eV  <-- do not rely on this value for anything but (periodic) metals
  | Electronic free energy        :       -2013.07623550 Ha      -54778.59147201 eV

  Derived energy quantities:
  | Kinetic energy                :        2030.92618013 Ha       55264.31317872 eV
  | Electrostatic energy          :       -3925.02661145 Ha     -106805.40829688 eV
  | Energy correction for multipole
  | error in Hartree potential    :           0.00662837 Ha           0.18036717 eV
  | Sum of eigenvalues per atom                           :       -5422.71416972 eV
  | Total energy (T->0) per atom                          :       -9129.76509697 eV  <-- do not rely on this value for anything but (periodic) metals
  | Electronic free energy per atom                       :       -9129.76524534 eV
  Evaluating new KS density using the density matrix
  Evaluating density matrix
  Time summed over all CPUs for getting density from density matrix: real work        5.245 s, elapsed        5.566 s
  Integration grid: deviation in total charge (<rho> - N_e) =  -4.263256E-14

  Self-consistency convergence accuracy:
  | Change of charge density      :  0.6453E+00
  | Change of unmixed KS density  :  0.1918E+00
  | Change of sum of eigenvalues  :  0.3108E+02 eV
  | Change of total energy        :  0.4328E+01 eV


------------------------------------------------------------
  End self-consistency iteration #     2       :  max(cpu_time)    wall_clock(cpu1)
  | Time for this iteration                     :        0.450 s           0.450 s
  | Charge density update                       :        0.240 s           0.240 s
  | Density mixing                              :        0.000 s           0.000 s
  | Hartree multipole update                    :        0.001 s           0.001 s
  | Hartree multipole summation                 :        0.028 s           0.027 s
  | Integration                                 :        0.115 s           0.115 s
  | Solution of K.-S. eqns.                     :        0.066 s           0.067 s
  | Total energy evaluation                     :        0.000 s           0.000 s

  Partial memory accounting:
  | Current value for overall tracked memory usage:
  |   Minimum:        7.207 MB (on task  0)
  |   Maximum:        7.365 MB (on task  2)
  |   Average:        7.322 MB
  | Peak value for overall tracked memory usage:
  |   Minimum:       16.133 MB (on task  6 after allocating gradient_basis_wave)
  |   Maximum:       18.301 MB (on task 16 after allocating gradient_basis_wave)
  |   Average:       17.306 MB
  | Largest tracked array allocation so far:
  |   Minimum:        4.689 MB (hamiltonian_shell on task  6)
  |   Maximum:        6.207 MB (hamiltonian_shell on task 16)
  |   Average:        5.512 MB
  Note:  These values currently only include a subset of arrays which are explicitly tracked.
  The "true" memory usage will be greater.
------------------------------------------------------------

------------------------------------------------------------
          Begin self-consistency iteration #    3

  Date     :  20240627, Time     :  161025.847
------------------------------------------------------------
  Pulay mixing of updated and previous charge densities.
  Available memory per node after mixing [GB]:   1045.00
  Renormalizing the density to the exact electron count on the 3D integration grid.
  | Formal number of electrons (from input files) :      76.0000000000
  | Integrated number of electrons on 3D grid     :      76.0000000000
  | Charge integration error                      :       0.0000000000
  | Normalization factor for density and gradient :       1.0000000000

  Evaluating partitioned Hartree potential by multipole expansion.
  | Original multipole sum: apparent total charge =   0.952793E-13
  | Sum of charges compensated after spline to logarithmic grids =   0.635595E-06
  | Analytical far-field extrapolation by fixed multipoles:
  | Hartree multipole sum: apparent total charge =   0.949842E-13
  Summing up the Hartree potential.
  Time summed over all CPUs for potential: real work        0.025 s, elapsed        0.026 s
  | RMS charge density error from multipole expansion :   0.591003E-02
  | Average real-space part of the electrostatic potential :      0.36156001 eV

  Integrating Hamiltonian matrix: batch-based integration.
  Time summed over all CPUs for integration: real work        2.522 s, elapsed        2.671 s

  Updating Kohn-Sham eigenvalues and eigenvectors using ELSI and the (modified) LAPACK eigensolver.
  Starting LAPACK eigensolver
  Finished Cholesky decomposition
  | Time :     0.000 s
  Finished transformation to standard eigenproblem
  | Time :     0.001 s
  Finished solving standard eigenproblem
  | Time :     0.002 s
  Finished back-transformation of eigenvectors
  | Time :     0.000 s

  Obtaining occupation numbers and electronic chemical potential using ELSI.
  | Note that, for insulating systems, the printed 'chemical potential' value is not uniquely defined.
  | It can be anywhere in the energy gap, as long as it correctly separates occupied and unoccupied states.
  | In systems with a gap, the physically relevant chemical potential is the VBM or HOMO.

  | Chemical potential (Fermi level):    -7.23328208 eV
  What follows are estimated values for band gap, HOMO, LUMO, etc.
  | They are estimated on a discrete k-point grid and not necessarily exact.
  | For converged numbers, create a DOS and/or band structure plot on a denser k-grid.

  Highest occupied state (VBM) at     -7.24427669 eV (relative to internal zero)
  | Occupation number:      1.24418002
  | K-point:     116 at    0.250000    0.625000    0.500000 (in units of recip. lattice)

  Lowest unoccupied state (CBM) at    -7.21899402 eV (relative to internal zero)
  | Occupation number:      0.68611917
  | K-point:     133 at    0.375000    0.000000    0.375000 (in units of recip. lattice)

  ESTIMATED overall HOMO-LUMO gap:      0.02528267 eV between HOMO at k-point 116 and LUMO at k-point 133
  | This appears to be an indirect band gap.
  | Smallest direct gap :      0.29429732 eV for k_point 61 at    0.125000    0.500000    0.375000 (in units of recip. lattice)
  However, this system has fractional occupation numbers. Since we use a finite k-point grid,
  this material is metallic within the approximate finite broadening function (occupation_type)
  applied to determine the occupation numbers.

  Total energy components:
  | Sum of eigenvalues            :       -1195.67069814 Ha      -32535.85510252 eV
  | XC energy correction          :        -118.97771982 Ha       -3237.54848088 eV
  | XC potential correction       :         153.87162310 Ha        4187.05989975 eV
  | Free-atom electrostatic energy:        -850.80121301 Ha      -23151.47894030 eV
  | Hartree energy correction     :          -1.49216911 Ha         -40.60398729 eV
  | Entropy correction            :          -0.00003702 Ha          -0.00100731 eV
  | ---------------------------
  | Total energy                  :       -2013.07017698 Ha      -54778.42661124 eV
  | Total energy, T -> 0          :       -2013.07021400 Ha      -54778.42761855 eV  <-- do not rely on this value for anything but (periodic) metals
  | Electronic free energy        :       -2013.07025101 Ha      -54778.42862586 eV

  Derived energy quantities:
  | Kinetic energy                :        2030.90869739 Ha       55263.83744920 eV
  | Electrostatic energy          :       -3925.00115456 Ha     -106804.71557956 eV
  | Energy correction for multipole
  | error in Hartree potential    :           0.00732218 Ha           0.19924671 eV
  | Sum of eigenvalues per atom                           :       -5422.64251709 eV
  | Total energy (T->0) per atom                          :       -9129.73793643 eV  <-- do not rely on this value for anything but (periodic) metals
  | Electronic free energy per atom                       :       -9129.73810431 eV
  Evaluating new KS density using the density matrix
  Evaluating density matrix
[...]
  |                                                                   |
  +-------------------------------------------------------------------+

 * Warning: Stress tensor is anisotropic. Be aware that pressure is an isotropic quantity.


  Self-consistency convergence accuracy:
  | Change of charge density      :  0.7874E-07
  | Change of unmixed KS density  :  0.1142E-06
  | Change of sum of eigenvalues  :  0.9949E-05 eV
  | Change of total energy        : -0.2815E-08 eV
  | Change of forces              :  0.1648E-04 eV/A

  Writing Kohn-Sham eigenvalues.
  K-point:       1 at    0.000000    0.000000    0.000000 (in units of recip. lattice)

  State    Occupation    Eigenvalue [Ha]    Eigenvalue [eV]
      1       2.00000        -180.091105        -4900.52830
      2       2.00000        -180.091078        -4900.52756
      3       2.00000         -19.884580         -541.08695
      4       2.00000         -19.884556         -541.08629
      5       2.00000         -18.869128         -513.45510
      6       2.00000         -18.869128         -513.45510
      7       2.00000         -18.869117         -513.45479
      8       2.00000         -18.869117         -513.45479
      9       2.00000         -16.472103         -448.22872
     10       2.00000         -16.472078         -448.22805
     11       2.00000         -16.471949         -448.22455
     12       2.00000         -16.471924         -448.22387
     13       2.00000         -16.471903         -448.22328
     14       2.00000         -16.471878         -448.22261
     15       2.00000          -2.415192          -65.72073
     16       2.00000          -2.414655          -65.70612
     17       2.00000          -1.543972          -42.01361
     18       2.00000          -1.543959          -42.01327
     19       2.00000          -1.538292          -41.85905
     20       2.00000          -1.538287          -41.85891
     21       2.00000          -1.537491          -41.83726
     22       2.00000          -1.536420          -41.80812
     23       2.00000          -0.986243          -26.83705
     24       2.00000          -0.945116          -25.71792
     25       2.00000          -0.919483          -25.02041
     26       2.00000          -0.919467          -25.01997
     27       2.00000          -0.530080          -14.42421
     28       2.00000          -0.514147          -13.99066
     29       2.00000          -0.492998          -13.41517
     30       2.00000          -0.459042          -12.49117
     31       2.00000          -0.459019          -12.49055
     32       2.00000          -0.413309          -11.24670
     33       2.00000          -0.413300          -11.24647
     34       2.00000          -0.392064          -10.66861
     35       2.00000          -0.347023           -9.44297
     36       2.00000          -0.337322           -9.17900
     37       2.00000          -0.337317           -9.17885
     38       2.00000          -0.319855           -8.70369
     39       0.00000          -0.254954           -6.93765
     40       0.00000          -0.244016           -6.64001
     41       0.00000          -0.234236           -6.37389
     42       0.00000          -0.232406           -6.32408
     43       0.00000          -0.232394           -6.32376
     44       0.00000          -0.167918           -4.56929
     45       0.00000          -0.158696           -4.31833
     46       0.00000          -0.084651           -2.30346
     47       0.00000          -0.084641           -2.30319
     48       0.00000          -0.053190           -1.44737
     49       0.00000          -0.035034           -0.95333
     50       0.00000           0.123494            3.36043
     51       0.00000           0.123498            3.36056
     52       0.00000           0.227096            6.17959
     53       0.00000           0.268597            7.30890
     54       0.00000           0.323681            8.80782
     55       0.00000           0.343834            9.35619
     56       0.00000           0.397032           10.80379
     57       0.00000           0.397092           10.80542
     58       0.00000           0.469956           12.78816
     59       0.00000           0.603049           16.40979
     60       0.00000           0.643482           17.51005
     61       0.00000           0.717133           19.51419

  What follows are estimated values for band gap, HOMO, LUMO, etc.
  | They are estimated on a discrete k-point grid and not necessarily exact.
  | For converged numbers, create a DOS and/or band structure plot on a denser k-grid.

  Highest occupied state (VBM) at     -8.70369315 eV (relative to internal zero)
  | Occupation number:      2.00000000
  | K-point:       1 at    0.000000    0.000000    0.000000 (in units of recip. lattice)

  Lowest unoccupied state (CBM) at    -6.93765345 eV (relative to internal zero)
  | Occupation number:      0.00000000
  | K-point:       1 at    0.000000    0.000000    0.000000 (in units of recip. lattice)

  ESTIMATED overall HOMO-LUMO gap:      1.76603970 eV between HOMO at k-point 1 and LUMO at k-point 1
  | This appears to be a direct band gap.
  The gap value is above 0.2 eV. Unless you are using a very sparse k-point grid,
  this system is most likely an insulator or a semiconductor.

  | Chemical Potential                          :    -8.11299786 eV
  | Note that, for insulating systems, the printed 'chemical potential' value is not uniquely defined.
  | It can be anywhere in the energy gap, as long as it correctly separates occupied and unoccupied states.
  | In systems with a gap, the physically relevant chemical potential is the VBM or HOMO.

  Self-consistency cycle converged.


------------------------------------------------------------
  End self-consistency iteration #     9       :  max(cpu_time)    wall_clock(cpu1)
  | Time for this iteration                     :        4.342 s           4.342 s
  | Charge density & force component update     :        3.848 s           3.848 s
  | Density mixing                              :        0.000 s           0.000 s
  | Hartree multipole update                    :        0.001 s           0.001 s
  | Hartree multipole summation                 :        0.172 s           0.172 s
  | Hartree pot. SCF incomplete forces          :        0.148 s           0.149 s
  | Integration                                 :        0.114 s           0.114 s
  | Solution of K.-S. eqns.                     :        0.057 s           0.057 s
  | Total energy evaluation                     :        0.000 s           0.000 s

  Partial memory accounting:
  | Current value for overall tracked memory usage:
  |   Minimum:        8.218 MB (on task 23)
  |   Maximum:        8.488 MB (on task 12)
  |   Average:        8.419 MB
  | Peak value for overall tracked memory usage:
  |   Minimum:       28.524 MB (on task 11 after allocating d_wave)
  |   Maximum:       30.473 MB (on task 19 after allocating d_wave)
  |   Average:       29.384 MB
  | Largest tracked array allocation so far:
  |   Minimum:        5.345 MB (hamiltonian_shell on task 11)
  |   Maximum:        6.207 MB (hamiltonian_shell on task 16)
  |   Average:        5.741 MB
  Note:  These values currently only include a subset of arrays which are explicitly tracked.
  The "true" memory usage will be greater.
------------------------------------------------------------
  Removing unitary transformations (pure translations, rotations) from forces on atoms.
  Atomic forces before filtering:
  | Net force on center of mass :  -0.100310E-06 -0.127705E-07 -0.561118E-08 eV/A
  Atomic forces after filtering:
  | Net force on center of mass :  -0.174225E-18  0.871124E-19  0.199384E-23 eV/A

  Energy and forces in a compact form:
  | Total energy uncorrected      :         -0.548009334940867E+05 eV
  | Total energy corrected        :         -0.548009334940867E+05 eV  <-- do not rely on this value for anything but (periodic) metals
  | Electronic free energy        :         -0.548009334940867E+05 eV
  Total atomic forces (unitary forces cleaned) [eV/Ang]:
  |    1         -0.684570152811135E-06          0.629864272428189E-06          0.874046361903581E-10
  |    2          0.433949503626349E-06         -0.447163758180386E-06          0.173305607106130E-07
  |    3         -0.894372964781728E-03         -0.891704189726487E-03         -0.764016704869994E-08
  |    4          0.894341271659021E-03          0.891758801348251E-03         -0.739483900019382E-08
  |    5         -0.587248687026056E-03          0.588775313606855E-03         -0.118016726567352E-08
  |    6          0.587531000797948E-03         -0.589012625742867E-03         -0.120279203223611E-08

  ------------------------------------ 
  Start decomposition of the XC Energy 
  ------------------------------------ 
  X and C from original XC functional choice 
  Hartree-Fock Energy :          0.000000000 Ha              0.000000000 eV
  X Energy            :       -115.609209573 Ha          -3145.886653433 eV
  C Energy            :         -3.010274657 Ha            -81.913741141 eV
  XC Energy w/o HF    :       -118.619484230 Ha          -3227.800394574 eV
  Total XC Energy     :       -118.619484230 Ha          -3227.800394574 eV
  ------------------------------------ 
  LDA X and C from self-consistent density 
  X Energy LDA        :       -107.321981653 Ha          -2920.379708056 eV
  C Energy LDA        :         -5.870989066 Ha           -159.757740864 eV
  ------------------------------------ 
  End decomposition of the XC Energy 
  ------------------------------------ 

------------------------------------------------------------
  Relaxation / MD: End force evaluation.       :  max(cpu_time)    wall_clock(cpu1)
  | Time for this force evaluation              :        8.596 s           8.597 s

------------------------------------------------------------
  Geometry optimization: Attempting to predict improved coordinates.

  +-------------------------------------------------------------------+
  | Generalized derivatives on lattice vectors [eV/A]                 |
  +-------------------------------------------------------------------+
  |lattice_vector       0.00090691       0.00093024       0.00000000  |
  |lattice_vector       0.00093023       0.00088224      -0.00000000  |
  |lattice_vector       0.00000000      -0.00000000      -0.00150314  |
  +-------------------------------------------------------------------+
  | Forces on lattice vectors cleaned from atomic contributions [eV/A]|
  +-------------------------------------------------------------------+
  |lattice_vector      -0.00090691      -0.00093024      -0.00000000  |
  |lattice_vector      -0.00093023      -0.00088224       0.00000000  |
  |lattice_vector      -0.00000000       0.00000000       0.00150314  |
  +-------------------------------------------------------------------+
  Removing unitary transformations (pure translations, rotations) from forces on atoms.
  Atomic forces before filtering:
  | Net force on center of mass :  -0.174225E-18  0.871124E-19  0.199384E-23 eV/A
  Atomic forces after filtering:
  | Net force on center of mass :   0.000000E+00  0.871124E-19  0.132923E-23 eV/A
  Net remaining forces (excluding translations, rotations) in present geometry:
  || Forces on atoms   || =   0.894373E-03 eV/A.
  || Forces on lattice || =   0.150314E-02 eV/A^3.
  Maximum force component is  0.150314E-02 eV/A.
  Present geometry is converged.

------------------------------------------------------------
  Final atomic structure:
                         x [A]             y [A]             z [A]
  lattice_vector         4.64332494        0.00011435       -0.00000000
  lattice_vector         0.00011456        4.64335009       -0.00000000
  lattice_vector        -0.00000000       -0.00000000        2.97259829

            atom         0.00000003       -0.00000003       -0.00000001  Ti
            atom         2.32171974        2.32173222        1.48629915  Ti
            atom         1.41885614        1.41890536        0.00000000  O
            atom         3.22458335        3.22455908        0.00000000  O
            atom         0.90297484        3.74052659        1.48629915  O
            atom         3.74046465        0.90293786        1.48629915  O

  Fractional coordinates:
                         L1                L2                L3
       atom_frac         0.00000001       -0.00000001       -0.00000000  Ti
       atom_frac         0.50000000        0.50000000        0.50000000  Ti
       atom_frac         0.30556146        0.30557042        0.00000000  O
       atom_frac         0.69443854        0.69442958        0.00000000  O
       atom_frac         0.19444742        0.80556156        0.50000000  O
       atom_frac         0.80555258        0.19443844        0.50000000  O
------------------------------------------------------------

------------------------------------------------------------------------------
  Final output of selected total energy values:

  The following output summarizes some interesting total energy values
  at the end of a run (AFTER all relaxation, molecular dynamics, etc.).

  | Total energy of the DFT / Hartree-Fock s.c.f. calculation      :         -54800.933494087 eV
  | Final zero-broadening corrected energy (caution - metals only) :         -54800.933494087 eV
  | For reference only, the value of 1 Hartree used in FHI-aims is :             27.211384500 eV
  | For reference only, the overall average (free atom contribution
  | + realspace contribution) of the electrostatic potential after
  | s.c.f. convergence is                                          :            -17.020488840 eV

  Before relying on these values, please be sure to understand exactly which
  total energy value is referred to by a given number. Different objects may
  all carry the same name 'total energy'. Definitions:

  Total energy of the DFT / Hartree-Fock s.c.f. calculation:
  | Note that this energy does not include ANY quantities calculated after the
  | s.c.f. cycle, in particular not ANY RPA, MP2, etc. many-body perturbation terms.

  Final zero-broadening corrected energy:
  | For metallic systems only, a broadening of the occupation numbers at the Fermi
  | level can be extrapolated back to zero broadening by an electron-gas inspired
  | formula. For all systems that are not real metals, this value can be
  | meaningless and should be avoided.

------------------------------------------------------------------------------
  Methods described in the following list of references were used in this FHI-aims run.
  If you publish the results, please make sure to cite these reference if they apply.
  FHI-aims is an academic code, and for our developers (often, Ph.D. students
  and postdocs), scientific credit in the community is essential.
  Thank you for helping us!

  For any use of FHI-aims, please cite:

    Volker Blum, Ralf Gehrke, Felix Hanke, Paula Havu, Ville Havu,
    Xinguo Ren, Karsten Reuter, and Matthias Scheffler
    'Ab initio molecular simulations with numeric atom-centered orbitals'
    Computer Physics Communications 180, 2175-2196 (2009)
    http://doi.org/10.1016/j.cpc.2009.06.022


  For the analytical stress tensor used in your run, please cite:

    Franz Knuth, Christian Carbogno, Viktor Atalla, Volker Blum, Matthias Scheffler
    'All-electron formalism for total energy strain derivatives and
    stress tensor components for numeric atom-centered orbitals'
    Computer Physics Communications 190, 33-50 (2015).
    http://doi.org/10.1016/j.cpc.2015.01.003


  The provided symmetry information was generated with SPGlib:

    Atsushi Togo, Yusuke Seto, Dimitar Pashov
    SPGlib 1.7.3 obtained from http://spglib.sourceforge.net
    Licence: New BSD license
    Copyright (C) 2008 Atsushi Togo


  The ELSI infrastructure was used in your run to solve the Kohn-Sham electronic structure.
  Please check out https://wordpress.elsi-interchange.org to learn more.
  If scalability is important for your project, please acknowledge ELSI by citing:

    V. W-z. Yu, F. Corsetti, A. Garcia, W. P. Huhn, M. Jacquelin, W. Jia,
    B. Lange, L. Lin, J. Lu, W. Mi, A. Seifitokaldani, A. Vazquez-Mayagoitia,
    C. Yang, H. Yang, and V. Blum
    'ELSI: A unified software interface for Kohn-Sham electronic structure solvers'
    Computer Physics Communications 222, 267-285 (2018).
    http://doi.org/10.1016/j.cpc.2017.09.007


  For the real-space grid partitioning and parallelization used in this calculation, please cite:

    Ville Havu, Volker Blum, Paula Havu, and Matthias Scheffler,
    'Efficient O(N) integration for all-electron electronic structure calculation'
    'using numerically tabulated basis functions'
    Journal of Computational Physics 228, 8367-8379 (2009).
    http://doi.org/10.1016/j.jcp.2009.08.008

  Of course, there are many other important community references, e.g., those cited in the
  above references. Our list is limited to references that describe implementations in the
  FHI-aims code. The reason is purely practical (length of this list) - please credit others as well.

------------------------------------------------------------
          Leaving FHI-aims.
          Date     :  20240627, Time     :  161244.172

          Computational steps:
          | Number of self-consistency cycles          :          193
          | Number of SCF (re)initializations          :           12
          | Number of relaxation steps                 :           11

          Detailed time accounting                     :  max(cpu_time)    wall_clock(cpu1)
          | Total time                                  :      140.133 s         140.148 s
          | Preparation time                            :        0.206 s           0.205 s
          | Boundary condition initalization            :        0.307 s           0.297 s
          | Grid partitioning                           :        0.177 s           0.177 s
          | Preloading free-atom quantities on grid     :        0.984 s           0.985 s
          | Free-atom superposition energy              :        0.104 s           0.105 s
          | Total time for integrations                 :       22.677 s          22.671 s
          | Total time for solution of K.-S. equations  :       11.749 s          11.757 s
          | Total time for EV reorthonormalization      :        0.100 s           0.091 s
          | Total time for density & force components   :       90.773 s          90.777 s
          | Total time for mixing                       :        0.054 s           0.048 s
          | Total time for Hartree multipole update     :        0.162 s           0.162 s
          | Total time for Hartree multipole sum        :        8.977 s           8.977 s
          | Total time for total energy evaluation      :        0.084 s           0.077 s
          | Total time NSC force correction             :        3.521 s           3.522 s
          | Total time for scaled ZORA corrections      :        0.000 s           0.000 s

          Partial memory accounting:
          | Residual value for overall tracked memory usage across tasks:     0.000000 MB (should be 0.000000 MB)
          | Peak values for overall tracked memory usage:
          |   Minimum:       28.524 MB (on task 11 after allocating d_wave)
          |   Maximum:       30.473 MB (on task 19 after allocating d_wave)
          |   Average:       29.384 MB
          | Largest tracked array allocation:
          |   Minimum:        5.345 MB (hamiltonian_shell on task 11)
          |   Maximum:        6.207 MB (hamiltonian_shell on task 16)
          |   Average:        5.741 MB
          Note:  These values currently only include a subset of arrays which are explicitly tracked.
          The "true" memory usage will be greater.

          Have a nice day.
------------------------------------------------------------
