------------------------------------------------------------
          Invoking FHI-aims ...

          When using FHI-aims, please cite the following reference:

            Volker Blum, Ralf Gehrke, Felix Hanke, Paula Havu,
            Ville Havu, Xinguo Ren, Karsten Reuter, and Matthias Scheffler,
            'Ab Initio Molecular Simulations with Numeric Atom-Centered Orbitals',
            Computer Physics Communications 180, 2175-2196 (2009)

          In addition, many other developments in FHI-aims are likely important for
          your particular application. If so, please cite them. A partial list of references
          is written at the end of this file. Thank you for giving credit to the authors
          of these developments.

          For general information about FHI-aims please find us at

            https://fhi-aims.org

          Online tutorials can be found at

            https://fhi-aims-club.gitlab.io/tutorials/tutorials-overview/

          For any questions about FHI-aims, please visit our slack channel at

            https://fhi-aims.slack.com

          and our main development and support site at

            https://aims-git.rz-berlin.mpg.de .

          The latter site, in particular, has a wiki to collect information, as well
          as an issue tracker to log discussions, suggest improvements, and report issues
          or bugs. https://aims-git.rz-berlin.mpg.de is also the main development site
          of the project and all new and updated code versions can be obtained there.
          Please send an email to aims-coordinators@fhi-berlin.mpg.de and we will add
          you to these sites. They are for you and everyone is welcome there.

------------------------------------------------------------



  Date     :  20250315, Time     :  164557.264
  Time zero on CPU 1             :   0.390306000000000E+00  s.
  Internal wall clock time zero  :           511289157.264  s.

  FHI-aims created a unique identifier for this run for later identification
  aims_uuid : 77436049-0684-4D47-AC58-909E9D6AAB71

  Build configuration of the current instance of FHI-aims
  -------------------------------------------------------
  FHI-aims version      : 240605
  Commit number         : b001b2e18
  CMake host system     : Linux-6.5.0-41-generic
  CMake version         : 3.22.1
  Fortran compiler      : /opt/intel/oneapi/mpi/2021.12/bin/mpiifort (IntelLLVM) version 2024.1.0
  Fortran compiler flags: -fc=ifx -O3 -ip -fp-model precise
  C compiler            : /opt/intel/oneapi/mpi/2021.12/bin/mpiicc (IntelLLVM) version 2024.1.0
  C compiler flags      : -cc=icx -O3 -ip -fp-model precise -std=gnu99
  C++ compiler          : /opt/intel/oneapi/mpi/2021.12/bin/mpiicpc (IntelLLVM) version 2024.1.0
  C++ compiler flags    : -cxx=icpx -O3 -ip -fp-model precise -std=c++11
  HIP compiler          :
  HIP compiler flags    :
  HIP GPU arch          :
  Using MPI
  Using ScaLAPACK
  Using LibXC
  Using i-PI
  Using RLSY
  Linking against: /opt/intel/oneapi/mkl/2024.1/lib/intel64/libmkl_intel_lp64.so
                   /opt/intel/oneapi/mkl/2024.1/lib/intel64/libmkl_sequential.so
                   /opt/intel/oneapi/mkl/2024.1/lib/intel64/libmkl_core.so
                   /opt/intel/oneapi/mkl/2024.1/lib/intel64/libmkl_blacs_intelmpi_lp64.so
                   /opt/intel/oneapi/mkl/2024.1/lib/intel64/libmkl_scalapack_lp64.so
                   /opt/intel/oneapi/mkl/2024.1/lib/intel64/libmkl_core.so

  Using       32 parallel tasks.
  Task        0 on host RSL-arvutus reporting.
  Task        1 on host RSL-arvutus reporting.
  Task        2 on host RSL-arvutus reporting.
  Task        3 on host RSL-arvutus reporting.
  Task        4 on host RSL-arvutus reporting.
  Task        5 on host RSL-arvutus reporting.
  Task        6 on host RSL-arvutus reporting.
  Task        7 on host RSL-arvutus reporting.
  Task        8 on host RSL-arvutus reporting.
  Task        9 on host RSL-arvutus reporting.
  Task       10 on host RSL-arvutus reporting.
  Task       11 on host RSL-arvutus reporting.
  Task       12 on host RSL-arvutus reporting.
  Task       13 on host RSL-arvutus reporting.
  Task       14 on host RSL-arvutus reporting.
  Task       15 on host RSL-arvutus reporting.
  Task       16 on host RSL-arvutus reporting.
  Task       17 on host RSL-arvutus reporting.
  Task       18 on host RSL-arvutus reporting.
  Task       19 on host RSL-arvutus reporting.
  Task       20 on host RSL-arvutus reporting.
  Task       21 on host RSL-arvutus reporting.
  Task       22 on host RSL-arvutus reporting.
  Task       23 on host RSL-arvutus reporting.
  Task       24 on host RSL-arvutus reporting.
  Task       25 on host RSL-arvutus reporting.
  Task       26 on host RSL-arvutus reporting.
  Task       27 on host RSL-arvutus reporting.
  Task       28 on host RSL-arvutus reporting.
  Task       29 on host RSL-arvutus reporting.
  Task       30 on host RSL-arvutus reporting.
  Task       31 on host RSL-arvutus reporting.

  Memory overcommitment is allowed on your operating system.

  Obtaining array dimensions for all initial allocations:
  
  -----------------------------------------------------------------------
  Parsing control.in (first pass over file, find array dimensions only).
  The contents of control.in will be repeated verbatim below
  unless switched off by setting 'verbatim_writeout .false.' .
  in the first line of control.in .
  -----------------------------------------------------------------------
  
    xc              pbe
    relativistic    zora scalar 1.0e-12
    KS_method	  serial
    k_grid          8 8 1
  
    spin		  collinear
    default_initial_moment	0.0
  
    output          Mulliken
  
  
  ################################################################################
  #
  #  FHI-aims code project
  #  VB, Fritz-Haber Institut, 2009
  #
  #  Suggested "light" defaults for Ti atom (to be pasted into control.in file)
  #  Be sure to double-check any results obtained with these settings for post-processing,
  #  e.g., with the "tight" defaults and larger basis sets.
  #
  ################################################################################
    species        Ti
  #     global species definitions
      nucleus             22
      mass                47.867
  #
      l_hartree           4
  #
      cut_pot             3.5          1.5  1.0
      basis_dep_cutoff    1e-4
  #
      radial_base         48 5.0
      radial_multiplier   1
      angular_grids       specified
        division   0.5171   50
        division   0.9824  110
        division   1.2917  194
        division   1.4940  302
  #      division   1.6934  434
  #      division   1.8425  590
  #      division   2.1901  770
  #      division   2.2896  974
  #      division   2.8244 1202
  #      outer_grid  974
        outer_grid  302
  ################################################################################
  #
  #  Definition of "minimal" basis
  #
  ################################################################################
  #     valence basis states
      valence      4  s   2.
      valence      3  p   6.
      valence      3  d   2.
  #     ion occupancy
      ion_occ      4  s   1.
      ion_occ      3  p   6.
      ion_occ      3  d   1.
  ################################################################################
  #
  #  Suggested additional basis functions. For production calculations,
  #  uncomment them one after another (the most important basis functions are
  #  listed first).
  #
  #  Constructed for dimers: 1.6 A, 1.85 A, 2.5 A, 3.25 A, 4.25 A
  #
  ################################################################################
  #  "First tier" - improvements: -396.25 meV to -19.41 meV
       hydro 4 f 8
       hydro 3 d 2.7
       ionic 4 p auto
  #     hydro 5 g 11.6
       ionic 4 s auto
  #  "Second tier" - improvements: -16.30 meV to -2.03 meV
  #     hydro 3 d 4.4
  #     hydro 6 h 16
  #     hydro 4 f 9.4
  #     hydro 4 p 4.5
  #     hydro 1 s 0.5
  #  "Third tier" - improvements: -6.28 meV to -0.37 meV
  #     hydro 4 d 6.4
  #     hydro 4 f 10
  #     hydro 5 g 12
  #     hydro 2 p 1.7
  #     hydro 6 h 16.4
  #     hydro 4 s 3.8
  #  Further basis functions: -0.45 meV and smaller improvements
  #     hydro 3 d 8.8
  #     hydro 5 p 18
  #     hydro 4 f 22.4
  #     hydro 5 f 7.2  # -0.16 meV
  #     hydro 3 d 2.1  # -0.11 meV
  #     hydro 5 g 7.4  # -0.09 meV
  
  
  ################################################################################
  #
  #  FHI-aims code project
  #  VB, Fritz-Haber Institut, 2009
  #
  #  Suggested "light" defaults for O atom (to be pasted into control.in file)
  #  Be sure to double-check any results obtained with these settings for post-processing,
  #  e.g., with the "tight" defaults and larger basis sets.
  #
  ################################################################################
    species        O
  #     global species definitions
      nucleus             8
      mass                15.9994
  #
      l_hartree           4
  #
      cut_pot             3.5  1.5  1.0
      basis_dep_cutoff    1e-4
  #
      radial_base         36 5.0
      radial_multiplier   1
       angular_grids specified
        division   0.2659   50
        division   0.4451  110
        division   0.6052  194
        division   0.7543  302
  #      division   0.8014  434
  #      division   0.8507  590
  #      division   0.8762  770
  #      division   0.9023  974
  #      division   1.2339 1202
  #      outer_grid 974
        outer_grid 302
  ################################################################################
  #
  #  Definition of "minimal" basis
  #
  ################################################################################
  #     valence basis states
      valence      2  s   2.
      valence      2  p   4.
  #     ion occupancy
      ion_occ      2  s   1.
      ion_occ      2  p   3.
  ################################################################################
  #
  #  Suggested additional basis functions. For production calculations,
  #  uncomment them one after another (the most important basis functions are
  #  listed first).
  #
  #  Constructed for dimers: 1.0 A, 1.208 A, 1.5 A, 2.0 A, 3.0 A
  #
  ################################################################################
  #  "First tier" - improvements: -699.05 meV to -159.38 meV
       hydro 2 p 1.8
       hydro 3 d 7.6
       hydro 3 s 6.4
  #  "Second tier" - improvements: -49.91 meV to -5.39 meV
  #     hydro 4 f 11.6
  #     hydro 3 p 6.2
  #     hydro 3 d 5.6
  #     hydro 5 g 17.6
  #     hydro 1 s 0.75
  #  "Third tier" - improvements: -2.83 meV to -0.50 meV
  #     ionic 2 p auto
  #     hydro 4 f 10.8
  #     hydro 4 d 4.7
  #     hydro 2 s 6.8
  #  "Fourth tier" - improvements: -0.40 meV to -0.12 meV
  #     hydro 3 p 5
  #     hydro 3 s 3.3
  #     hydro 5 g 15.6
  #     hydro 4 f 17.6
  #     hydro 4 d 14
  # Further basis functions - -0.08 meV and below
  #     hydro 3 s 2.1
  #     hydro 4 d 11.6
  #     hydro 3 p 16
  #     hydro 2 s 17.2
  
  ################################################################################
  #
  #  "Core" basis functions and numerical settings for O atom.
  #  Based on “tight” defaults (V. Blum, 2009).
  #
  ################################################################################
    species        O1
  #     global species definitions
      nucleus             8.
      mass                15.9994
  #
      l_hartree           6
  #
      cut_pot             4.0  2.0  1.0
      basis_dep_cutoff    1e-4
  #
      radial_base         36 7.0
      radial_multiplier   2
       angular_grids specified
        division   0.1817   50
        division   0.3417  110
        division   0.4949  194
        division   0.6251  302
        division   0.8014  434
  #      division   0.8507  590
  #      division   0.8762  770
  #      division   0.9023  974
  #      division   1.2339 1202
  #      outer_grid 974
        outer_grid  434
  ################################################################################
  #
  #  Definition of "minimal" basis
  #
  ################################################################################
  #     valence basis states
      valence      2  s   2.
      valence      2  p   4.
  #     ion occupancy
      ion_occ      2  s   1.
      ion_occ      2  p   3.
  ################################################################################
  #
  #  Suggested additional basis functions. For production calculations,
  #  uncomment them one after another (the most important basis functions are
  #  listed first).
  #
  #  Constructed for dimers: 1.0 A, 1.208 A, 1.5 A, 2.0 A, 3.0 A
  #
  ################################################################################
  #  "First tier" - improvements: -699.05 meV to -159.38 meV
       hydro 2 p 1.8
       hydro 3 d 7.6
       hydro 3 s 6.4
  #  "Second tier" - improvements: -49.91 meV to -5.39 meV
       hydro 4 f 11.6
       hydro 3 p 6.2
       hydro 3 d 5.6
       hydro 5 g 17.6
       hydro 1 s 0.75
  #  "Third tier" - improvements: -2.83 meV to -0.50 meV
       ionic 2 p auto
       hydro 4 f 10.8
       hydro 4 d 4.7
       hydro 2 s 6.8
  #  "Fourth tier" - improvements: -0.40 meV to -0.12 meV
  #     hydro 3 p 5
  #     hydro 3 s 3.3
  #     hydro 5 g 15.6
  #     hydro 4 f 17.6
  #     hydro 4 d 14
  # Further basis functions - -0.08 meV and below
  #     hydro 3 s 2.1
  #     hydro 4 d 11.6
  #     hydro 3 p 16
  #     hydro 2 s 17.2
  
  # Additional basis functions for atom with a core hole
       hydro 1 s 12.0
       hydro 1 s 10.0
       hydro 1 s 6.0
       hydro 2 s 10.0
       hydro 2 p 8.0
       hydro 2 p 6.0
       hydro 3 d 8.0
  
  -----------------------------------------------------------------------
  Completed first pass over input file control.in .
  -----------------------------------------------------------------------
  
  
  -----------------------------------------------------------------------
  Parsing geometry.in (first pass over file, find array dimensions only).
  The contents of geometry.in will be repeated verbatim below
  unless switched off by setting 'verbatim_writeout .false.' .
  in the first line of geometry.in .
  -----------------------------------------------------------------------
  
  lattice_vector 6.566127 0.000000 0.000000
  lattice_vector 0.000000 5.945766 0.000000
  lattice_vector 0.000000 0.000000 22.332457
  
  atom_frac 0.999994 0.000000 0.368597 O
  atom_frac 0.305556 0.250000 0.425767 O
  atom_frac 0.499997 0.000000 0.425768 Ti
  atom_frac 0.999997 0.250000 0.425768 Ti
  atom_frac 0.694439 0.250000 0.425769 O
  atom_frac 0.000001 0.000000 0.482939 O
  atom_frac 0.499991 0.000000 0.515613 O
  atom_frac 0.805553 0.250000 0.572783 O
  atom_frac 0.999995 0.000000 0.572784 Ti
  atom_frac 0.499995 0.250000 0.572784 Ti
  atom_frac 0.194436 0.250000 0.572786 O
  atom_frac 0.499998 0.000000 0.629955 O
  atom_frac 0.999994 0.500000 0.368597 O
  atom_frac 0.305556 0.750000 0.425767 O
  atom_frac 0.499997 0.500000 0.425768 Ti
  atom_frac 0.999997 0.750000 0.425768 Ti
  atom_frac 0.694439 0.750000 0.425769 O
  atom_frac 0.000001 0.500000 0.482939 O
  atom_frac 0.499991 0.500000 0.515613 O
  atom_frac 0.805553 0.750000 0.572783 O
  atom_frac 0.999995 0.500000 0.572784 Ti
  atom_frac 0.499995 0.750000 0.572784 Ti
  atom_frac 0.194436 0.750000 0.572786 O
  atom_frac 0.499998 0.500000 0.629955 O
  
  -----------------------------------------------------------------------
  Completed first pass over input file geometry.in .
  -----------------------------------------------------------------------
  

  Basic array size parameters:
  | Number of species                 :        3
  | Number of atoms                   :       24
  | Number of lattice vectors         :        3
  | Max. basis fn. angular momentum   :        4
  | Max. atomic/ionic basis occupied n:        4
  | Max. number of basis fn. types    :        3
  | Max. radial fns per species/type  :       18
  | Max. logarithmic grid size        :     1383
  | Max. radial integration grid size :       73
  | Max. angular integration grid size:      434
  | Max. angular grid division number :        8
  | Radial grid for Hartree potential :     1383
  | Number of spin channels           :        2

------------------------------------------------------------
          Reading file control.in.
------------------------------------------------------------
  XC: Using PBE gradient-corrected functionals.
  Scalar relativistic treatment of kinetic energy: ZORA.
  Threshold value for ZORA:   0.100000E-11
  Kohn-Sham eigenvalues and eigenfunctions calculated by LAPACK via ELSI.
  Found k-point grid:         8         8         1
  Spin treatment: Spin density functional theory - collinear spins.
  Initial spin moment per atom:   0.0000
  Mulliken charge analysis will be performed and summarised to the main output.
  Full Mulliken charge analysis will be written to file 'Mulliken.out'.
 
  Reading configuration options for species Ti                  .
  | Found nuclear charge :  22.0000
  | Found atomic mass :    47.8670000000000      amu
  | Found l_max for Hartree potential  :   4
  | Found cutoff potl. onset [A], width [A], scale factor :    3.50000    1.50000    1.00000
  | Threshold for basis-dependent cutoff potential is   0.100000E-03
  | Found data for basic radial integration grid :    48 points, outermost radius =    5.000 A
  | Found multiplier for basic radial grid :   1
  | Found angular grid specification: user-specified.
  | Specified grid contains     5 separate shells.
  | Check grid settings after all constraints further below.
  | Found free-atom valence shell :  4 s   2.000
  | Found free-atom valence shell :  3 p   6.000
  | Found free-atom valence shell :  3 d   2.000
  | Found free-ion valence shell :  4 s   1.000
  | Found free-ion valence shell :  3 p   6.000
  | Found free-ion valence shell :  3 d   1.000
  | Found hydrogenic basis function :  4 f   8.000
  | Found hydrogenic basis function :  3 d   2.700
  | Found ionic basis function :  4 p , default cutoff radius.
  | Found ionic basis function :  4 s , default cutoff radius.
 | Encountered keyword species, ending the description of species Ti                  .
  Species Ti                  : Missing cutoff potential type.
  Defaulting to exp(1/x)/(1-x)^2 type cutoff potential.
  Species Ti: No 'logarithmic' tag. Using default grid for free atom:
  | Default logarithmic grid data [bohr] : 0.1000E-03 0.1000E+03 0.1012E+01
  | Will include ionic basis functions of  2.0-fold positive Ti                   ion.
  Species Ti: On-site basis accuracy parameter (for Gram-Schmidt orthonormalisation) not specified.
  Using default value basis_acc =  0.1000000E-03.
  Species Ti                  : Using default innermost maximum threshold i_radial=  2 for radial functions.
  Species Ti                  : Default cutoff onset for free atom density etc. : 0.35000000E+01 AA.
  Species Ti                  : Basic radial grid will be enhanced according to radial_multiplier =   1, to contain    48 grid points.
 
  Reading configuration options for species O                   .
  | Found nuclear charge :   8.0000
  | Found atomic mass :    15.9994000000000      amu
  | Found l_max for Hartree potential  :   4
  | Found cutoff potl. onset [A], width [A], scale factor :    3.50000    1.50000    1.00000
  | Threshold for basis-dependent cutoff potential is   0.100000E-03
  | Found data for basic radial integration grid :    36 points, outermost radius =    5.000 A
  | Found multiplier for basic radial grid :   1
  | Found angular grid specification: user-specified.
  | Specified grid contains     5 separate shells.
  | Check grid settings after all constraints further below.
  | Found free-atom valence shell :  2 s   2.000
  | Found free-atom valence shell :  2 p   4.000
  | Found free-ion valence shell :  2 s   1.000
  | Found free-ion valence shell :  2 p   3.000
  | Found hydrogenic basis function :  2 p   1.800
  | Found hydrogenic basis function :  3 d   7.600
  | Found hydrogenic basis function :  3 s   6.400
 | Encountered keyword species, ending the description of species O                   .
  Species O                   : Missing cutoff potential type.
  Defaulting to exp(1/x)/(1-x)^2 type cutoff potential.
  Species O : No 'logarithmic' tag. Using default grid for free atom:
  | Default logarithmic grid data [bohr] : 0.1000E-03 0.1000E+03 0.1012E+01
  Species O : On-site basis accuracy parameter (for Gram-Schmidt orthonormalisation) not specified.
  Using default value basis_acc =  0.1000000E-03.
  Species O                   : Using default innermost maximum threshold i_radial=  2 for radial functions.
  Species O                   : Default cutoff onset for free atom density etc. : 0.35000000E+01 AA.
  Species O                   : Basic radial grid will be enhanced according to radial_multiplier =   1, to contain    36 grid points.
 
  Reading configuration options for species O1                  .
  | Found nuclear charge :   8.0000
  | Found atomic mass :    15.9994000000000      amu
  | Found l_max for Hartree potential  :   6
  | Found cutoff potl. onset [A], width [A], scale factor :    4.00000    2.00000    1.00000
  | Threshold for basis-dependent cutoff potential is   0.100000E-03
  | Found data for basic radial integration grid :    36 points, outermost radius =    7.000 A
  | Found multiplier for basic radial grid :   2
  | Found angular grid specification: user-specified.
  | Specified grid contains     6 separate shells.
  | Check grid settings after all constraints further below.
  | Found free-atom valence shell :  2 s   2.000
  | Found free-atom valence shell :  2 p   4.000
  | Found free-ion valence shell :  2 s   1.000
  | Found free-ion valence shell :  2 p   3.000
  | Found hydrogenic basis function :  2 p   1.800
  | Found hydrogenic basis function :  3 d   7.600
  | Found hydrogenic basis function :  3 s   6.400
  | Found hydrogenic basis function :  4 f  11.600
  | Found hydrogenic basis function :  3 p   6.200
  | Found hydrogenic basis function :  3 d   5.600
  | Found hydrogenic basis function :  5 g  17.600
  | Found hydrogenic basis function :  1 s   0.750
  | Found ionic basis function :  2 p , default cutoff radius.
  | Found hydrogenic basis function :  4 f  10.800
  | Found hydrogenic basis function :  4 d   4.700
  | Found hydrogenic basis function :  2 s   6.800
  | Found hydrogenic basis function :  1 s  12.000
  | Found hydrogenic basis function :  1 s  10.000
  | Found hydrogenic basis function :  1 s   6.000
  | Found hydrogenic basis function :  2 s  10.000
  | Found hydrogenic basis function :  2 p   8.000
  | Found hydrogenic basis function :  2 p   6.000
  | Found hydrogenic basis function :  3 d   8.000
  Species O1                  : Missing cutoff potential type.
  Defaulting to exp(1/x)/(1-x)^2 type cutoff potential.
  Species O1: No 'logarithmic' tag. Using default grid for free atom:
  | Default logarithmic grid data [bohr] : 0.1000E-03 0.1000E+03 0.1012E+01
  | Will include ionic basis functions of  2.0-fold positive O1                   ion.
  Species O1: On-site basis accuracy parameter (for Gram-Schmidt orthonormalisation) not specified.
  Using default value basis_acc =  0.1000000E-03.
  Species O1                  : Using default innermost maximum threshold i_radial=  2 for radial functions.
  Species O1                  : Default cutoff onset for free atom density etc. : 0.40000000E+01 AA.
  Species O1                  : Basic radial grid will be enhanced according to radial_multiplier =   2, to contain    73 grid points.
 
  Finished reading input file 'control.in'.
 
------------------------------------------------------------


------------------------------------------------------------
          Reading geometry description geometry.in.
------------------------------------------------------------
  | The smallest distance between any two atoms is         1.95947270 AA.
  | The first atom of this pair is atom number                      2 .
  | The second atom of this pair is atom number                     3 .
  | Wigner-Seitz cell of the first atom image           0     0     0 .
  | (The Wigner-Seitz cell of the second atom is 0 0 0  by definition.)

  Symmetry information by spglib:
  | Precision set to  0.1E-04
  | Number of Operations  : 4
  | Space group           : 6
  | International         : Pm      /op
  | Schoenflies           : Cs^1
  Input structure read successfully.
  The structure contains       24 atoms,  and a total of        304.000 electrons.

  Input geometry:
  | Unit cell:
  |        6.56612700        0.00000000        0.00000000
  |        0.00000000        5.94576600        0.00000000
  |        0.00000000        0.00000000       22.33245700
  | Atomic structure:
  |       Atom                x [A]            y [A]            z [A]
  |    1: Species O             6.56608760        0.00000000        8.23167665
  |    2: Species O             2.00631950        1.48644150        9.50842322
  |    3: Species Ti            3.28304380        0.00000000        9.50844555
  |    4: Species Ti            6.56610730        1.48644150        9.50844555
  |    5: Species O             4.55977467        1.48644150        9.50846788
  |    6: Species O             0.00000657        0.00000000       10.78521445
  |    7: Species O             3.28300440        0.00000000       11.51490515
  |    8: Species O             5.28936330        1.48644150       12.79165172
  |    9: Species Ti            6.56609417        0.00000000       12.79167405
  |   10: Species Ti            3.28303067        1.48644150       12.79167405
  |   11: Species O             1.27669147        1.48644150       12.79171872
  |   12: Species O             3.28305037        0.00000000       14.06844295
  |   13: Species O             6.56608760        2.97288300        8.23167665
  |   14: Species O             2.00631950        4.45932450        9.50842322
  |   15: Species Ti            3.28304380        2.97288300        9.50844555
  |   16: Species Ti            6.56610730        4.45932450        9.50844555
  |   17: Species O             4.55977467        4.45932450        9.50846788
  |   18: Species O             0.00000657        2.97288300       10.78521445
  |   19: Species O             3.28300440        2.97288300       11.51490515
  |   20: Species O             5.28936330        4.45932450       12.79165172
  |   21: Species Ti            6.56609417        2.97288300       12.79167405
  |   22: Species Ti            3.28303067        4.45932450       12.79167405
  |   23: Species O             1.27669147        4.45932450       12.79171872
  |   24: Species O             3.28305037        2.97288300       14.06844295

  Lattice parameters for 3D lattice (in Angstroms) :     6.566127    5.945766   22.332457
  Angle(s) between unit vectors (in degrees)       :    90.000000   90.000000   90.000000


  Quantities derived from the lattice vectors (in Angstrom^-1):
  | Reciprocal lattice vector 1:  0.956909  0.000000  0.000000
  | Reciprocal lattice vector 2:  0.000000  1.056750  0.000000
  | Reciprocal lattice vector 3:  0.000000  0.000000  0.281348
  | Unit cell volume                               :   0.871874E+03  Angstrom^3

  Fractional coordinates:
                         L1                L2                L3
       atom_frac         0.99999400        0.00000000        0.36859700  O
       atom_frac         0.30555600        0.25000000        0.42576700  O
       atom_frac         0.49999700        0.00000000        0.42576800  Ti
       atom_frac         0.99999700        0.25000000        0.42576800  Ti
       atom_frac         0.69443900        0.25000000        0.42576900  O
       atom_frac         0.00000100        0.00000000        0.48293900  O
       atom_frac         0.49999100        0.00000000        0.51561300  O
       atom_frac         0.80555300        0.25000000        0.57278300  O
       atom_frac         0.99999500        0.00000000        0.57278400  Ti
       atom_frac         0.49999500        0.25000000        0.57278400  Ti
       atom_frac         0.19443600        0.25000000        0.57278600  O
       atom_frac         0.49999800        0.00000000        0.62995500  O
       atom_frac         0.99999400        0.50000000        0.36859700  O
       atom_frac         0.30555600        0.75000000        0.42576700  O
       atom_frac         0.49999700        0.50000000        0.42576800  Ti
       atom_frac         0.99999700        0.75000000        0.42576800  Ti
       atom_frac         0.69443900        0.75000000        0.42576900  O
       atom_frac         0.00000100        0.50000000        0.48293900  O
       atom_frac         0.49999100        0.50000000        0.51561300  O
       atom_frac         0.80555300        0.75000000        0.57278300  O
       atom_frac         0.99999500        0.50000000        0.57278400  Ti
       atom_frac         0.49999500        0.75000000        0.57278400  Ti
       atom_frac         0.19443600        0.75000000        0.57278600  O
       atom_frac         0.49999800        0.50000000        0.62995500  O

  Initial moments and charges:
  |  Atom   Moment         Charge        Species
  |     1   0.000000E+00   0.000000E+00   O
  |     2   0.000000E+00   0.000000E+00   O
  |     3   0.000000E+00   0.000000E+00   Ti
  |     4   0.000000E+00   0.000000E+00   Ti
  |     5   0.000000E+00   0.000000E+00   O
  |     6   0.000000E+00   0.000000E+00   O
  |     7   0.000000E+00   0.000000E+00   O
  |     8   0.000000E+00   0.000000E+00   O
  |     9   0.000000E+00   0.000000E+00   Ti
  |    10   0.000000E+00   0.000000E+00   Ti
  |    11   0.000000E+00   0.000000E+00   O
  |    12   0.000000E+00   0.000000E+00   O
  |    13   0.000000E+00   0.000000E+00   O
  |    14   0.000000E+00   0.000000E+00   O
  |    15   0.000000E+00   0.000000E+00   Ti
  |    16   0.000000E+00   0.000000E+00   Ti
  |    17   0.000000E+00   0.000000E+00   O
  |    18   0.000000E+00   0.000000E+00   O
  |    19   0.000000E+00   0.000000E+00   O
  |    20   0.000000E+00   0.000000E+00   O
  |    21   0.000000E+00   0.000000E+00   Ti
  |    22   0.000000E+00   0.000000E+00   Ti
  |    23   0.000000E+00   0.000000E+00   O
  |    24   0.000000E+00   0.000000E+00   O

  Slab Identifier: This is Z-oriented slab and maximum thickness of the vacuum is: 16.496 Angstrom.
 
  Finished reading input file 'geometry.in'.
 

 
  Consistency checks for stacksize environment parameter are next.
 
  | Maximum stacksize for task 0: unlimited
  | Maximum stacksize for task 1: unlimited
  | Maximum stacksize for task 2: unlimited
  | Maximum stacksize for task 3: unlimited
  | Maximum stacksize for task 4: unlimited
  | Maximum stacksize for task 5: unlimited
  | Maximum stacksize for task 6: unlimited
  | Maximum stacksize for task 7: unlimited
  | Maximum stacksize for task 8: unlimited
  | Maximum stacksize for task 9: unlimited
  | Maximum stacksize for task 10: unlimited
  | Maximum stacksize for task 11: unlimited
  | Maximum stacksize for task 12: unlimited
  | Maximum stacksize for task 13: unlimited
  | Maximum stacksize for task 14: unlimited
  | Maximum stacksize for task 15: unlimited
  | Maximum stacksize for task 16: unlimited
  | Maximum stacksize for task 17: unlimited
  | Maximum stacksize for task 18: unlimited
  | Maximum stacksize for task 19: unlimited
  | Maximum stacksize for task 20: unlimited
  | Maximum stacksize for task 21: unlimited
  | Maximum stacksize for task 22: unlimited
  | Maximum stacksize for task 23: unlimited
  | Maximum stacksize for task 24: unlimited
  | Maximum stacksize for task 25: unlimited
  | Maximum stacksize for task 26: unlimited
  | Maximum stacksize for task 27: unlimited
  | Maximum stacksize for task 28: unlimited
  | Maximum stacksize for task 29: unlimited
  | Maximum stacksize for task 30: unlimited
  | Maximum stacksize for task 31: unlimited
  | Current stacksize for task 0: unlimited
  | Current stacksize for task 1: unlimited
  | Current stacksize for task 2: unlimited
  | Current stacksize for task 3: unlimited
  | Current stacksize for task 4: unlimited
  | Current stacksize for task 5: unlimited
  | Current stacksize for task 6: unlimited
  | Current stacksize for task 7: unlimited
  | Current stacksize for task 8: unlimited
  | Current stacksize for task 9: unlimited
  | Current stacksize for task 10: unlimited
  | Current stacksize for task 11: unlimited
  | Current stacksize for task 12: unlimited
  | Current stacksize for task 13: unlimited
  | Current stacksize for task 14: unlimited
  | Current stacksize for task 15: unlimited
  | Current stacksize for task 16: unlimited
  | Current stacksize for task 17: unlimited
  | Current stacksize for task 18: unlimited
  | Current stacksize for task 19: unlimited
  | Current stacksize for task 20: unlimited
  | Current stacksize for task 21: unlimited
  | Current stacksize for task 22: unlimited
  | Current stacksize for task 23: unlimited
  | Current stacksize for task 24: unlimited
  | Current stacksize for task 25: unlimited
  | Current stacksize for task 26: unlimited
  | Current stacksize for task 27: unlimited
  | Current stacksize for task 28: unlimited
  | Current stacksize for task 29: unlimited
  | Current stacksize for task 30: unlimited
  | Current stacksize for task 31: unlimited
 
  Consistency checks for the contents of control.in are next.
 
  MPI_IN_PLACE appears to work with this MPI implementation.
  | Keeping use_mpi_in_place .true. (see manual).
  Target number of points in a grid batch is not set. Defaulting to  100
  Method for grid partitioning is not set. Defaulting to parallel hash+maxmin partitioning.
  Batch size limit is not set. Defaulting to    200
  By default, will store active basis functions for each batch.
  If in need of memory, prune_basis_once .false. can be used to disable this option.
  communication_type for Hartree potential was not specified.
  Defaulting to calc_hartree .
  Defaulting to Pulay charge density mixer.
  Pulay mixer: Number of relevant iterations not set.
  Defaulting to    8 iterations.
  Pulay mixer: Number of initial linear mixing iterations not set.
  Defaulting to    0 iterations.
  Work space size for distributed Hartree potential not set.
  Defaulting to   0.200000E+03 MB.
  Mixing parameter for charge density mixing has not been set.
  Using default: charge_mix_param =     0.0500.
  The mixing parameter will be adjusted in iteration number     2 of each s.c.f. cycle (i.e., each geometry step).
  Mixing parameter for spin density mixing has not been set.
  Using charge_mix_param as default:     0.0500.
  Algorithm-dependent basis array size parameters:
  | n_max_pulay                         :        8
  Maximum number of self-consistency iterations not provided.
  Presetting  1000 iterations.
  Presetting      1001 iterations before the initial mixing cycle
  is restarted anyway using the sc_init_iter criterion / keyword.
  Presetting a factor      1.000 between actual scf density residual
  and density convergence criterion sc_accuracy_rho below which sc_init_iter
  takes no effect.
 * No s.c.f. convergence criteria (sc_accuracy_*) were provided in control.in.
 * The run will proceed with a reasonable default guess, but please check whether.
 * the s.c.f. cycles seem to take too much or too little time.
  Calculation of forces was not defined in control.in. No forces will be calculated.
  Geometry relaxation not requested: no relaxation will be performed.
 * Notice: The s.c.f. convergence criterion sc_accuracy_rho was not provided.
 * We used to stop in this case, and ask the user to provide reasonable
 * scf convergence criteria. However, this led some users to employ criteria
 * that led to extremely long run times, e.g., for simple relaxation.
 * We now preset a default value for sc_accuracy_rho if it is not set.
 * You may still wish to check if this setting is too tight or too loose for your needs.
 * Based on n_atoms and forces and force-correction status, FHI-aims chose sc_accuracy_rho =  0.200000E-05 .
  No accuracy limit for integral partition fn. given. Defaulting to  0.1000E-14.
  No threshold value for u(r) in integrations given. Defaulting to  0.1000E-05.
  No occupation type (smearing scheme) given. Defaulting to Gaussian broadening, width =  0.1000E-01 eV.
  The width will be adjusted in iteration number     2 of each s.c.f. cycle (i.e., each geometry step).
  No accuracy for occupation numbers given. Defaulting to  0.1000E-12.
  No threshold value for occupation numbers given. Defaulting to  0.0000E+00.
  No accuracy for fermi level given. Defaulting to  0.1000E-19.
  Maximum # of iterations to find E_F not set. Defaulting to  200.
  Will not use alltoall communication since running on < 1024 CPUs.
  Threshold for basis singularities not set.
  Default threshold for basis singularities:  0.1000E-04
  partition_type (choice of integration weights) for integrals was not specified.
  | Using a version of the partition function of Stratmann and coworkers ('stratmann_sparse').
  | At each grid point, the set of atoms used to build the partition table is smoothly restricted to
  | only those atoms whose free-atom density would be non-zero at that grid point.
  Partitioning for Hartree potential was not defined. Using partition_type for integrals.
  | Adjusted default value of keyword multip_moments_threshold to:       0.10000000E-11
  | This value may affect high angular momentum components of the Hartree potential in periodic systems.
  Angular momentum expansion for Kerker preconditioner not set explicitly.
  | Using default value of   0
  No explicit requirement for turning off preconditioner.
  | By default, it will be turned off when the charge convergence reaches
  | sc_accuracy_rho  =   0.200000E-05
  No special mixing parameter while Kerker preconditioner is on.
  Using default: charge_mix_param =     0.0500.
  No q(lm)/r^(l+1) cutoff set for long-range Hartree potential.
  | Using default value of  0.100000E-09 .
  | Verify using the multipole_threshold keyword.
  Defaulting to new monopole extrapolation.
  Density update method: automatic selection selected.
  Using density matrix based charge density update.
  Using density matrix based charge density update.
  Using packed matrix style: index .
  Defaulting to use time-reversal symmetry for k-point grid.
  Charge integration errors on the 3D integration grid will be compensated
  by explicit normalization and distribution of residual charges.
  Use the "compensate_multipole_errors" flag to change this behaviour.
  Set 'collect_eigenvectors' to be '.true.' for all serial calculations. This is mandatory.
  Set 'collect_eigenvectors' to be '.true.' for KS_method lapack_fast and serial.
  Found potential conflicts with setting 'use_local_index' for this calculation. Will not set it.
 
  Consistency checks for the contents of geometry.in are next.
 

  Range separation radius for Ewald summation (hartree_convergence_parameter):      4.81466675 bohr.
  Number of empty states per atom not set in control.in - providing a guess from actual geometry.
  | Total number of empty states used during s.c.f. cycle:       92
  If you use a very high smearing, use empty_states (per atom!) in control.in to increase this value.

  Structure-dependent array size parameters: 
  | Number of distinct atom types in initial rho :        2
  | Maximum number of distinct radial functions  :       39
  | Maximum number of basis functions            :      472
  | Number of Kohn-Sham states (occupied + empty):      244
------------------------------------------------------------
  After read_input_data [GB]:    914.25

  Performing system and environment tests:
  *** Environment variable OMP_NUM_THREADS is not set
  *** For performance reasons you might want to set it to 1
  | Checking for ScaLAPACK...
  | Testing pdtran()...
  | All pdtran() tests passed.
  After prepare_system [GB]:    914.16

------------------------------------------------------------
          Preparing all fixed parts of the calculation.
------------------------------------------------------------
  Determining machine precision:
    2.225073858507201E-308
  Setting up grids for atomic and cluster calculations.

  Creating wave function, potential, and density for free atoms.
  Runtime choices for atomic solver:
  | atomic solver xc        : PBE
  | compute density gradient: 1
  | compute kinetic density : F

  Species: Ti

  List of occupied orbitals and eigenvalues:
    n    l              occ      energy [Ha]    energy [eV]
    1    0           2.0000      -179.959082     -4896.9358
    2    0           2.0000       -19.727662      -536.8170
    3    0           2.0000        -2.283029       -62.1244
    4    0           2.0000        -0.148384        -4.0377
    2    1           6.0000       -16.317278      -444.0157
    3    1           6.0000        -1.409348       -38.3503
    3    2           2.0000        -0.139340        -3.7916


  Species: O

  List of occupied orbitals and eigenvalues:
    n    l              occ      energy [Ha]    energy [eV]
    1    0           2.0000       -18.926989      -515.0296
    2    0           2.0000        -0.880247       -23.9527
    2    1           4.0000        -0.331514        -9.0210


  Species: O1

  List of occupied orbitals and eigenvalues:
    n    l              occ      energy [Ha]    energy [eV]
    1    0           2.0000       -18.927378      -515.0401
    2    0           2.0000        -0.880539       -23.9607
    2    1           4.0000        -0.331811        -9.0290

  Spin-polarized or charged system:
  Charge density initialized according to selected moments and charges.

  Creating spin-polarized density from free atoms.

  Species: O
  Charge:   0.000000
  Moment:   0.000000

  List of occupied orbitals and eigenvalues:
    n    l      energy [Ha]    energy [eV]    occupation
  Spin-up
    1    0       -18.926989      -515.0296     1.00000000
    2    0        -0.880247       -23.9527     1.00000000
    2    1        -0.331514        -9.0210     2.00000000
  Spin-down
    1    0       -18.926989      -515.0296     1.00000000
    2    0        -0.880247       -23.9527     1.00000000
    2    1        -0.331514        -9.0210     2.00000000


  Species: Ti
  Charge:   0.000000
  Moment:   0.000000

  List of occupied orbitals and eigenvalues:
    n    l      energy [Ha]    energy [eV]    occupation
  Spin-up
    1    0      -179.959082     -4896.9358     1.00000000
    2    0       -19.727662      -536.8170     1.00000000
    3    0        -2.283029       -62.1244     1.00000000
    4    0        -0.148384        -4.0377     1.00000000
    2    1       -16.317278      -444.0157     3.00000000
    3    1        -1.409348       -38.3503     3.00000000
    3    2        -0.139340        -3.7916     1.00000000
  Spin-down
    1    0      -179.959082     -4896.9358     1.00000000
    2    0       -19.727662      -536.8170     1.00000000
    3    0        -2.283029       -62.1244     1.00000000
    4    0        -0.148384        -4.0377     1.00000000
    2    1       -16.317278      -444.0157     3.00000000
    3    1        -1.409348       -38.3503     3.00000000
    3    2        -0.139340        -3.7916     1.00000000


  Adding cutoff potential to free-atom effective potential.
  Creating fixed part of basis set: Ionic, confined, hydrogenic.
 
  Ti                   ion:

  List of free ionic orbitals and eigenvalues:
    n    l      energy [Ha]    energy [eV]
    1    0      -180.819616     -4920.3521
    2    0       -20.608761      -560.7929
    3    0        -3.115729       -84.7833
    4    0        -0.697188       -18.9715
    2    1       -17.196209      -467.9327
    3    1        -2.231296       -60.7167
    3    2        -0.911363       -24.7995


  List of ionic basis orbitals and eigenvalues:
    n    l      energy [Ha]    energy [eV]    outer radius [A]
    4    1        -0.517739       -14.0884       4.592117
    4    0        -0.696824       -18.9615       4.536321

 
  Ti                   hydrogenic:
 
  List of hydrogenic basis orbitals: 
    n    l      effective z      eigenvalue [eV]  inner max. [A]     outer max. [A]     outer radius [A]   
    4    3         8.000000       -54.4222           1.059019           1.059019           4.267343
    3    2         2.700000       -10.7798           1.726925           1.726925           4.592117
 
 
  O                    hydrogenic:
 
  List of hydrogenic basis orbitals: 
    n    l      effective z      eigenvalue [eV]  inner max. [A]     outer max. [A]     outer radius [A]   
    2    1         1.800000       -10.9749           1.164242           1.164242           4.578029
    3    2         7.600000       -87.3180           0.624125           0.624125           3.251020
    3    0         6.400000       -61.9207           0.061167           1.081902           4.001998
 
 
  O1                   ion:

  List of free ionic orbitals and eigenvalues:
    n    l      energy [Ha]    energy [eV]
    1    0       -20.485570      -557.4407
    2    0        -2.134830       -58.0917
    2    1        -1.577627       -42.9294


  List of ionic basis orbitals and eigenvalues:
    n    l      energy [Ha]    energy [eV]    outer radius [A]
    2    1        -1.577621       -42.9293       3.541477

 
  O1                   hydrogenic:
 
  List of hydrogenic basis orbitals: 
    n    l      effective z      eigenvalue [eV]  inner max. [A]     outer max. [A]     outer radius [A]   
    2    1         1.800000       -11.0118           1.178562           1.178562           5.432602
    3    2         7.600000       -87.3182           0.624125           0.624125           3.541477
    3    0         6.400000       -61.9209           0.061167           1.081902           4.306578
    4    3        11.600000      -114.4238           0.731631           0.731631           3.585037
    3    1         6.200000       -58.1113           0.255680           1.030270           4.306578
    3    2         5.600000       -47.4081           0.847233           0.847233           4.413171
    5    4        17.600000      -168.5799           0.749740           0.749740           3.372465
    1    0         0.750000        -7.6499           0.705284           0.705284           5.366593
    4    3        10.800000       -99.1854           0.787313           0.787313           3.764702
    4    2         4.700000       -18.6841           0.758962           2.365807           5.499423
    2    0         6.800000      -157.2818           0.059689           0.406863           2.739620
    1    0        12.000000     -1959.2197           0.043971           0.043971           0.816724
    1    0        10.000000     -1360.5692           0.052821           0.052821           0.981101
    1    0         6.000000      -489.8049           0.088266           0.088266           1.561224
    2    0        10.000000      -340.1423           0.040365           0.278524           2.093567
    2    1         8.000000      -217.6911           0.265231           0.265231           2.365807
    2    1         6.000000      -122.4512           0.351348           0.351348           2.841960
    3    2         8.000000       -96.7515           0.594340           0.594340           3.455938
 
  Creating atomic-like basis functions for current effective potential.

  Species Ti                  :

  List of atomic basis orbitals and eigenvalues:
    n    l      energy [Ha]    energy [eV]    outer radius [A]
    1    0      -179.959082     -4896.9358       0.490254
    2    0       -19.727662      -536.8170       1.491292
    3    0        -2.283029       -62.1244       4.014314
    4    0        -0.148384        -4.0377       4.592117
    2    1       -16.317278      -444.0157       1.585290
    3    1        -1.409348       -38.3503       4.267343
    3    2        -0.139340        -3.7916       4.536321


  Species O                   :

  List of atomic basis orbitals and eigenvalues:
    n    l      energy [Ha]    energy [eV]    outer radius [A]
    1    0       -18.926989      -515.0296       1.415765
    2    0        -0.880247       -23.9527       4.413171
    2    1        -0.331514        -9.0210       4.522403


  Species O1                  :

  List of atomic basis orbitals and eigenvalues:
    n    l      energy [Ha]    energy [eV]    outer radius [A]
    1    0       -18.927378      -515.0401       1.415765
    2    0        -0.880539       -23.9607       5.048385
    2    1        -0.331811        -9.0290       5.301386

  Assembling full basis from fixed parts.
  | Species Ti :   atomic orbital   1 s accepted.
  | Species Ti :   atomic orbital   2 s accepted.
  | Species Ti :   atomic orbital   3 s accepted.
  | Species Ti :    ionic orbital   4 s accepted.
  | Species Ti :   atomic orbital   4 s accepted.
  | Species Ti :   atomic orbital   2 p accepted.
  | Species Ti :   atomic orbital   3 p accepted.
  | Species Ti :    ionic orbital   4 p accepted.
  | Species Ti :   atomic orbital   3 d accepted.
  | Species Ti :    hydro orbital   3 d accepted.
  | Species Ti :    hydro orbital   4 f accepted.
  | Species O :   atomic orbital   1 s accepted.
  | Species O :    hydro orbital   3 s accepted.
  | Species O :   atomic orbital   2 s accepted.
  | Species O :   atomic orbital   2 p accepted.
  | Species O :    hydro orbital   2 p accepted.
  | Species O :    hydro orbital   3 d accepted.
  | Species O1 :    hydro orbital   1 s accepted.
  | Species O1 :    hydro orbital   1 s accepted.
  | Species O1 :   atomic orbital   1 s accepted.
  | Species O1 :    hydro orbital   1 s accepted.
  | Species O1 :    hydro orbital   2 s accepted.
  | Species O1 :    hydro orbital   2 s accepted.
  | Species O1 :    hydro orbital   3 s accepted.
  | Species O1 :   atomic orbital   2 s accepted.
  | Species O1 :    hydro orbital   1 s accepted.
  | Species O1 :    hydro orbital   2 p accepted.
  | Species O1 :    hydro orbital   2 p accepted.
  | Species O1 :    ionic orbital   2 p accepted.
  | Species O1 :    hydro orbital   3 p accepted.
  | Species O1 :   atomic orbital   2 p accepted.
  | Species O1 :    hydro orbital   2 p accepted.
  | Species O1 :    hydro orbital   3 d accepted.
  | Species O1 :    hydro orbital   3 d accepted.
  | Species O1 :    hydro orbital   3 d accepted.
  | Species O1 :    hydro orbital   4 d accepted.
  | Species O1 :    hydro orbital   4 f accepted.
  | Species O1 :    hydro orbital   4 f accepted.
  | Species O1 :    hydro orbital   5 g accepted.
 
  Basis size parameters after reduction:
  | Total number of radial functions:       39
  | Total number of basis functions :      472
 
  Per-task memory consumption for arrays in subroutine allocate_ext:
  |          10.372076MB.
  Testing on-site integration grid accuracy.
  |  Species  Function  <phi|h_atom|phi> (log., in eV)  <phi|h_atom|phi> (rad., in eV)
           1        1              -4896.9357674450              -4896.9322838106
           1        2               -536.8170048508               -536.8169722776
           1        3                -62.1243896260                -62.1243889401
           1        4                 -3.2653235630                 -3.2692838824
           1        5                  6.7987747276                  6.5460721871 ***
           1        6               -444.0157161949               -444.0157165643
           1        7                -38.3503235548                -38.3503234985
           1        8                  0.2923930877                  0.2745948114
           1        9                 -3.7933400649                 -3.7959244171
           1       10                  6.3288803616                  6.2510614935 ***
           1       11                 27.8451455747                 27.8452636415
           2       12               -515.0295626295               -515.0294562869
           2       13                 15.1698434419                 15.1699322205
           2       14                -21.6038822678                -21.6039118108
           2       15                 -9.0211123393                 -9.0212703513
           2       16                  8.3047696391                  8.2854840999
           2       17                 45.8428042125                 45.8427461223
           3       18               -272.9322507263               -272.9201921991
           3       19               1665.9089384428               1665.9689460231 ***
           3       20               2095.2037268945               2095.2740317228 ***
           3       21               3047.3679718515               3047.0126722257 ***
           3       22               3234.6000205573               3231.5687072350 ***
           3       23               2428.4660356492               2422.2375592442 ***
           3       24                896.7802862158                893.3913916184 ***
           3       25               3128.2108268826               3108.2674940926 ***
           3       26                 71.8616615187                 71.1575836879 ***
           3       27                 15.4122562036                 15.4122564509
           3       28                101.7989356251                101.7989355629
           3       29                121.1064459338                121.1064460850
           3       30                271.5759585347                271.5759823152
           3       31                159.3966255928                159.3962927971
           3       32                153.6473243407                153.6504704040
           3       33                 50.7421815376                 50.7421815945
           3       34                 88.5010368311                 88.5010331057
           3       35                 82.9872957917                 82.9873669217
           3       36                 36.7418806245                 36.7419113217
           3       37                 85.4133898762                 85.4133899074
           3       38                115.1018427582                115.1018451832
           3       39                142.1023296234                142.1023296272
 * Note: Onsite integrals marked "***" above are less accurate than
 * onsite_accuracy_threshold =    0.03000 eV. Usually, this is harmless.
 * When in doubt, tighten the "radial" and/or "radial_multiplier" flags to check.

  Preparing densities etc. for the partition functions (integrals / Hartree potential).

  Preparations completed.
  max(cpu_time)          :      0.529 s.
  Wall clock time (cpu1) :      0.527 s.
------------------------------------------------------------
  After prepare_scf [GB]:    912.35

  Initializing index lists of integration centers etc. from given atomic structure:
  Mapping all atomic coordinates to central unit cell.

  Initializing the k-points
  Using symmetry for reducing the k-points
  | k-points reduced from:       64 to       34
  | Number of k-points                             :        34
  The eigenvectors in the calculations are COMPLEX.
  | K-points in task   0:         1
  | K-points in task   1:         2
  | K-points in task   2:         2
  | K-points in task   3:         1
  | K-points in task   4:         1
  | K-points in task   5:         1
  | K-points in task   6:         1
  | K-points in task   7:         1
  | K-points in task   8:         1
  | K-points in task   9:         1
  | K-points in task  10:         1
  | K-points in task  11:         1
  | K-points in task  12:         1
  | K-points in task  13:         1
  | K-points in task  14:         1
  | K-points in task  15:         1
  | K-points in task  16:         1
  | K-points in task  17:         1
  | K-points in task  18:         1
  | K-points in task  19:         1
  | K-points in task  20:         1
  | K-points in task  21:         1
  | K-points in task  22:         1
  | K-points in task  23:         1
  | K-points in task  24:         1
  | K-points in task  25:         1
  | K-points in task  26:         1
  | K-points in task  27:         1
  | K-points in task  28:         1
  | K-points in task  29:         1
  | K-points in task  30:         1
  | K-points in task  31:         1
  | Number of basis functions in the Hamiltonian integrals :      4888
  | Number of basis functions in a single unit cell        :       472
  | Number of centers in hartree potential         :      1430
  | Number of centers in hartree multipole         :       689
  | Number of centers in electron density summation:       552
  | Number of centers in basis integrals           :       576
  | Number of centers in integrals                 :       310
  | Number of centers in hamiltonian               :       743
  | Consuming         36 KiB for k_phase.
  | Number of super-cells (origin) [n_cells]                     :         405
  | Number of super-cells (after PM_index) [n_cells]             :          68
  | Number of super-cells in hamiltonian [n_cells_in_hamiltonian]:          68
  | Size of matrix packed + index [n_hamiltonian_matrix_size] :      558505
  After initialize_bc_dependent_lists [GB]:    912.33

------------------------------------------------------------
          Begin self-consistency loop: Initialization.

          Date     :  20250315, Time     :  164557.896
------------------------------------------------------------
  Available memory per node after initialize_hartree_non_periodic_ewald [GB]:    912.33
  | Estimated reciprocal-space cutoff momentum G_max:         1.91888898 bohr^-1 .
  | Reciprocal lattice points for long-range Hartree potential:     692
  Available memory per node after initialize_recip_hartree_potential [GB]:    912.33
  Available memory per node after initialize_scalapack [GB]:    912.33
  Available memory per node after aims_elsi_init_scf [GB]:    912.33
  Available memory per node after initialize_fixed_grids [GB]:    912.33
  Partitioning the integration grid into batches with parallel hashing+maxmin method.
  | Number of batches:     1798
  | Maximal batch size:     159
  | Minimal batch size:      57
  | Average batch size:      85.268
  | Standard deviation of batch sizes:      28.629

  Integration load balanced across    32 MPI tasks.
  Work distribution over tasks is as follows:
  Task     0 has       4801 integration points.
  Task     1 has       4760 integration points.
  Task     2 has       4784 integration points.
  Task     3 has       4773 integration points.
  Task     4 has       4799 integration points.
  Task     5 has       4805 integration points.
  Task     6 has       4784 integration points.
  Task     7 has       4802 integration points.
  Task     8 has       4797 integration points.
  Task     9 has       4791 integration points.
  Task    10 has       4780 integration points.
  Task    11 has       4809 integration points.
  Task    12 has       4800 integration points.
  Task    13 has       4768 integration points.
  Task    14 has       4796 integration points.
  Task    15 has       4777 integration points.
  Task    16 has       4795 integration points.
  Task    17 has       4767 integration points.
  Task    18 has       4762 integration points.
  Task    19 has       4810 integration points.
  Task    20 has       4818 integration points.
  Task    21 has       4782 integration points.
  Task    22 has       4815 integration points.
  Task    23 has       4821 integration points.
  Task    24 has       4761 integration points.
  Task    25 has       4817 integration points.
  Task    26 has       4759 integration points.
  Task    27 has       4791 integration points.
  Task    28 has       4794 integration points.
  Task    29 has       4774 integration points.
  Task    30 has       4817 integration points.
  Task    31 has       4803 integration points.
  Available memory per node after partition_grid [GB]:    912.69
  Initializing partition tables, free-atom densities, potentials, etc. across the integration grid (initialize_grid_storage).
  | initialize_grid_storage: Actual outermost partition radius vs. multipole_radius_free
  | (-- VB: in principle, multipole_radius_free should be larger, hence this output)
  | Species        1: Confinement radius =              4.999999999999999 AA, multipole_radius_free =              5.002391649902235 AA.
  | Species        1: outer_partition_radius set to              5.002391649902235 AA .
  | Species        2: Confinement radius =              4.999999999999999 AA, multipole_radius_free =              5.048384829883283 AA.
  | Species        2: outer_partition_radius set to              5.048384829883283 AA .
  | Species        3: Confinement radius =              6.000000000000000 AA, multipole_radius_free =              6.064445521808699 AA.
  | Species        3: outer_partition_radius set to              6.064445521808699 AA .
  | The sparse table of interatomic distances needs       1699.32 kbyte instead of      2654.21 kbyte of memory.
  | Net number of integration points:   153312
  | of which are non-zero points    :   128766
  | Numerical average free-atom electrostatic potential    :     -5.20581701 eV
  Available memory per node after initialize_grid_storage_p1 [GB]:    912.66
  Renormalizing the initial density to the exact electron count on the 3D integration grid.
  | Initial density: Formal number of electrons (from input files) :     304.0000000000
  | Integrated number of electrons on 3D grid     :     303.9990946376
  | Charge integration error                      :      -0.0009053624
  | Normalization factor for density and gradient :       1.0000029782
  Renormalizing the free-atom superposition density to the exact electron count on the 3D integration grid.
  | Formal number of electrons (from input files) :     304.0000000000
  | Integrated number of electrons on 3D grid     :     303.9990946376
  | Charge integration error                      :      -0.0009053624
  | Normalization factor for density and gradient :       1.0000029782
  Obtaining max. number of non-zero basis functions in each batch (get_n_compute_maxes).
  | Maximal number of non-zero basis functions:      679 in task     0
  | Maximal number of non-zero basis functions:      709 in task     1
  | Maximal number of non-zero basis functions:      707 in task     2
  | Maximal number of non-zero basis functions:      707 in task     3
  | Maximal number of non-zero basis functions:      681 in task     4
  | Maximal number of non-zero basis functions:      695 in task     5
  | Maximal number of non-zero basis functions:      718 in task     6
  | Maximal number of non-zero basis functions:      708 in task     7
  | Maximal number of non-zero basis functions:      696 in task     8
  | Maximal number of non-zero basis functions:      694 in task     9
  | Maximal number of non-zero basis functions:      709 in task    10
  | Maximal number of non-zero basis functions:      720 in task    11
  | Maximal number of non-zero basis functions:      708 in task    12
  | Maximal number of non-zero basis functions:      707 in task    13
  | Maximal number of non-zero basis functions:      702 in task    14
  | Maximal number of non-zero basis functions:      694 in task    15
  | Maximal number of non-zero basis functions:      695 in task    16
  | Maximal number of non-zero basis functions:      708 in task    17
  | Maximal number of non-zero basis functions:      686 in task    18
  | Maximal number of non-zero basis functions:      720 in task    19
  | Maximal number of non-zero basis functions:      718 in task    20
  | Maximal number of non-zero basis functions:      679 in task    21
  | Maximal number of non-zero basis functions:      698 in task    22
  | Maximal number of non-zero basis functions:      699 in task    23
  | Maximal number of non-zero basis functions:      718 in task    24
  | Maximal number of non-zero basis functions:      708 in task    25
  | Maximal number of non-zero basis functions:      718 in task    26
  | Maximal number of non-zero basis functions:      681 in task    27
  | Maximal number of non-zero basis functions:      684 in task    28
  | Maximal number of non-zero basis functions:      656 in task    29
  | Maximal number of non-zero basis functions:      664 in task    30
  | Maximal number of non-zero basis functions:      687 in task    31
  Available memory per node after get_n_compute_maxes_p1 [GB]:    912.65
  Initialize hartree_potential_storage
  Max. number of atoms included in rho_multipole:           24

  Evaluating partitioned Hartree potential by multipole expansion.
  | Original multipole sum: apparent total charge =   0.631447E-13
  | Sum of charges compensated after spline to logarithmic grids =   0.000000E+00
  | Analytical far-field extrapolation by fixed multipoles:
  | Hartree multipole sum: apparent total charge =   0.000000E+00
  Summing up the Hartree potential.
  | Ewald reciprocal-space coefficients, myid =     0 : cpu      0.000 s, wall      0.000 s.
  | Ewald reciprocal-space coefficients, myid =     1 : cpu      0.000 s, wall      0.000 s.
  | Ewald reciprocal-space coefficients, myid =     2 : cpu      0.000 s, wall      0.000 s.
  | Ewald reciprocal-space coefficients, myid =     3 : cpu      0.000 s, wall      0.000 s.
  | Ewald reciprocal-space coefficients, myid =     4 : cpu      0.000 s, wall      0.000 s.
  | Ewald reciprocal-space coefficients, myid =     5 : cpu      0.000 s, wall      0.000 s.
  | Ewald reciprocal-space coefficients, myid =     6 : cpu      0.000 s, wall      0.000 s.
  | Ewald reciprocal-space coefficients, myid =     7 : cpu      0.000 s, wall      0.000 s.
  | Ewald reciprocal-space coefficients, myid =     8 : cpu      0.000 s, wall      0.000 s.
  | Ewald reciprocal-space coefficients, myid =     9 : cpu      0.000 s, wall      0.000 s.
  | Ewald reciprocal-space coefficients, myid =    10 : cpu      0.000 s, wall      0.000 s.
  | Ewald reciprocal-space coefficients, myid =    11 : cpu      0.000 s, wall      0.000 s.
  | Ewald reciprocal-space coefficients, myid =    12 : cpu      0.000 s, wall      0.000 s.
  | Ewald reciprocal-space coefficients, myid =    13 : cpu      0.000 s, wall      0.000 s.
  | Ewald reciprocal-space coefficients, myid =    14 : cpu      0.000 s, wall      0.000 s.
  | Ewald reciprocal-space coefficients, myid =    15 : cpu      0.000 s, wall      0.000 s.
  | Ewald reciprocal-space coefficients, myid =    16 : cpu      0.000 s, wall      0.000 s.
  | Ewald reciprocal-space coefficients, myid =    17 : cpu      0.000 s, wall      0.000 s.
  | Ewald reciprocal-space coefficients, myid =    18 : cpu      0.000 s, wall      0.000 s.
  | Ewald reciprocal-space coefficients, myid =    19 : cpu      0.000 s, wall      0.000 s.
  | Ewald reciprocal-space coefficients, myid =    20 : cpu      0.000 s, wall      0.000 s.
  | Ewald reciprocal-space coefficients, myid =    21 : cpu      0.000 s, wall      0.000 s.
  | Ewald reciprocal-space coefficients, myid =    22 : cpu      0.000 s, wall      0.000 s.
  | Ewald reciprocal-space coefficients, myid =    23 : cpu      0.000 s, wall      0.000 s.
  | Ewald reciprocal-space coefficients, myid =    24 : cpu      0.000 s, wall      0.000 s.
  | Ewald reciprocal-space coefficients, myid =    25 : cpu      0.000 s, wall      0.000 s.
  | Ewald reciprocal-space coefficients, myid =    26 : cpu      0.000 s, wall      0.000 s.
  | Ewald reciprocal-space coefficients, myid =    27 : cpu      0.000 s, wall      0.000 s.
  | Ewald reciprocal-space coefficients, myid =    28 : cpu      0.000 s, wall      0.000 s.
  | Ewald reciprocal-space coefficients, myid =    29 : cpu      0.000 s, wall      0.000 s.
  | Ewald reciprocal-space coefficients, myid =    30 : cpu      0.000 s, wall      0.000 s.
  | Ewald reciprocal-space coefficients, myid =    31 : cpu      0.000 s, wall      0.000 s.
  Time summed over all CPUs for potential: real work        0.055 s, elapsed        0.081 s
  | RMS charge density error from multipole expansion :   0.363445E-13
  | Average real-space part of the electrostatic potential :     -0.00000000 eV

  Allocating        3.515 MB for KS_eigenvector_complex
  Available memory per node after allocate_matrices [GB]:    912.91
  Available memory per node after init_comm_sparse_local_matrix_scalapack [GB]:    912.91
  Integrating Hamiltonian matrix: batch-based integration.
  Time summed over all CPUs for integration: real work       31.597 s, elapsed       57.090 s => Consider using load balancing!
  Available memory per node after integrate hamiltonian matrix [GB]:    914.57
  Integrating overlap matrix.
  Time summed over all CPUs for integration: real work        5.500 s, elapsed        9.858 s
  Available memory per node after integrate ovlp matrix [GB]:    914.36
  Available memory per node after ASI_callbacks invoke [GB]:    914.36
  Available memory per node after save_overlap_scalapack [GB]:    914.36

  Updating Kohn-Sham eigenvalues and eigenvectors using ELSI and the (modified) LAPACK eigensolver.
  Singularity check in k-point 32, task 0 (analysis for other k-points/tasks may follow below):
  Overlap matrix is not singular
  | Lowest and highest eigenvalues :  0.1390E-02,  0.7686E+01
  Finished singularity check of overlap matrix
  | Time :     0.068 s
  Starting LAPACK eigensolver
  Finished Cholesky decomposition
  | Time :     0.013 s
  Finished transformation to standard eigenproblem
  | Time :     0.018 s
  Finished solving standard eigenproblem
  | Time :     0.080 s
  Finished back-transformation of eigenvectors
  | Time :     0.007 s

  Obtaining occupation numbers and electronic chemical potential using ELSI.
  | Note that, for insulating systems, the printed 'chemical potential' value is not uniquely defined.
  | It can be anywhere in the energy gap, as long as it correctly separates occupied and unoccupied states.
  | In systems with a gap, the physically relevant chemical potential is the VBM or HOMO.

  | Chemical potential (Fermi level):    -5.43961273 eV
  Available memory per node after advance_KS_solution [GB]:    915.08
  Writing Kohn-Sham eigenvalues.

  Spin-up eigenvalues:
  K-point:       1 at    0.000000    0.000000    0.000000 (in units of recip. lattice)

  State    Occupation    Eigenvalue [Ha]    Eigenvalue [eV]
      1       1.00000        -179.962364        -4897.02507
      2       1.00000        -179.962364        -4897.02507
      3       1.00000        -179.962364        -4897.02507
      4       1.00000        -179.962364        -4897.02507
      5       1.00000        -179.961228        -4896.99416
      6       1.00000        -179.961228        -4896.99416
      7       1.00000        -179.961228        -4896.99416
      8       1.00000        -179.961228        -4896.99416
      9       1.00000         -19.737905         -537.09573
     10       1.00000         -19.737905         -537.09573
     11       1.00000         -19.737905         -537.09573
     12       1.00000         -19.737905         -537.09573
     13       1.00000         -19.736670         -537.06212
     14       1.00000         -19.736670         -537.06212
     15       1.00000         -19.736670         -537.06212
     16       1.00000         -19.736670         -537.06212
     17       1.00000         -19.034648         -517.95913
     18       1.00000         -19.034648         -517.95913
     19       1.00000         -19.034648         -517.95913
     20       1.00000         -19.034648         -517.95913
     21       1.00000         -19.034527         -517.95582
     22       1.00000         -19.034527         -517.95582
     23       1.00000         -19.034527         -517.95582
     24       1.00000         -19.034527         -517.95582
     25       1.00000         -19.034526         -517.95581
     26       1.00000         -19.034526         -517.95581
     27       1.00000         -19.034526         -517.95581
     28       1.00000         -19.034526         -517.95581
     29       1.00000         -19.001837         -517.06629
     30       1.00000         -19.001837         -517.06629
     31       1.00000         -19.001837         -517.06629
     32       1.00000         -19.001837         -517.06629
     33       1.00000         -16.328081         -444.30969
     34       1.00000         -16.328081         -444.30969
     35       1.00000         -16.328081         -444.30969
     36       1.00000         -16.328081         -444.30969
     37       1.00000         -16.327761         -444.30097
     38       1.00000         -16.327761         -444.30097
     39       1.00000         -16.327761         -444.30097
     40       1.00000         -16.327761         -444.30097
     41       1.00000         -16.327754         -444.30080
     42       1.00000         -16.327754         -444.30080
     43       1.00000         -16.327754         -444.30080
     44       1.00000         -16.327754         -444.30080
     45       1.00000         -16.326910         -444.27782
     46       1.00000         -16.326910         -444.27782
     47       1.00000         -16.326910         -444.27782
     48       1.00000         -16.326910         -444.27782
     49       1.00000         -16.326601         -444.26941
     50       1.00000         -16.326601         -444.26941
     51       1.00000         -16.326601         -444.26941
     52       1.00000         -16.326601         -444.26941
     53       1.00000         -16.326436         -444.26493
     54       1.00000         -16.326436         -444.26493
     55       1.00000         -16.326436         -444.26493
     56       1.00000         -16.326436         -444.26493
     57       1.00000          -2.309018          -62.83157
     58       1.00000          -2.308993          -62.83089
     59       1.00000          -2.307216          -62.78255
     60       1.00000          -2.307214          -62.78248
     61       1.00000          -2.306183          -62.75443
     62       1.00000          -2.306158          -62.75374
     63       1.00000          -2.304411          -62.70622
     64       1.00000          -2.304408          -62.70613
     65       1.00000          -1.463773          -39.83130
     66       1.00000          -1.463735          -39.83024
     67       1.00000          -1.462094          -39.78561
     68       1.00000          -1.462053          -39.78448
     69       1.00000          -1.448859          -39.42546
     70       1.00000          -1.448531          -39.41652
     71       1.00000          -1.446370          -39.35772
     72       1.00000          -1.446107          -39.35058
     73       1.00000          -1.441310          -39.22004
     74       1.00000          -1.441245          -39.21826
     75       1.00000          -1.441168          -39.21618
     76       1.00000          -1.441018          -39.21209
     77       1.00000          -1.439137          -39.16092
     78       1.00000          -1.439108          -39.16013
     79       1.00000          -1.439098          -39.15984
     80       1.00000          -1.438961          -39.15612
     81       1.00000          -1.438848          -39.15304
     82       1.00000          -1.438658          -39.14787
     83       1.00000          -1.437857          -39.12609
     84       1.00000          -1.437818          -39.12501
     85       1.00000          -1.433066          -38.99571
     86       1.00000          -1.432949          -38.99252
     87       1.00000          -1.431866          -38.96305
     88       1.00000          -1.431796          -38.96115
     89       1.00000          -1.057851          -28.78559
     90       1.00000          -1.049181          -28.54967
     91       1.00000          -1.033907          -28.13404
     92       1.00000          -1.027997          -27.97323
     93       1.00000          -1.026804          -27.94076
     94       1.00000          -1.025673          -27.91000
     95       1.00000          -1.025034          -27.89259
     96       1.00000          -1.022667          -27.82819
     97       1.00000          -1.015964          -27.64580
     98       1.00000          -1.014435          -27.60417
     99       1.00000          -1.006670          -27.39289
    100       1.00000          -1.005181          -27.35236
    101       1.00000          -0.982315          -26.73016
    102       1.00000          -0.981333          -26.70343
    103       1.00000          -0.979369          -26.64999
    104       1.00000          -0.979124          -26.64332
    105       1.00000          -0.574674          -15.63769
    106       1.00000          -0.572611          -15.58154
    107       1.00000          -0.543924          -14.80093
    108       1.00000          -0.542109          -14.75153
    109       1.00000          -0.541317          -14.72997
    110       1.00000          -0.541188          -14.72648
    111       1.00000          -0.538367          -14.64970
    112       1.00000          -0.533774          -14.52472
    113       1.00000          -0.533079          -14.50582
    114       1.00000          -0.529671          -14.41309
    115       1.00000          -0.526813          -14.33531
    116       1.00000          -0.514961          -14.01279
    117       1.00000          -0.514817          -14.00889
    118       1.00000          -0.513990          -13.98637
    119       1.00000          -0.513818          -13.98169
    120       1.00000          -0.509002          -13.85065
    121       1.00000          -0.504431          -13.72627
    122       1.00000          -0.502561          -13.67538
    123       1.00000          -0.502151          -13.66421
    124       1.00000          -0.489800          -13.32813
    125       1.00000          -0.489140          -13.31019
    126       1.00000          -0.488726          -13.29891
    127       1.00000          -0.484868          -13.19394
    128       1.00000          -0.479410          -13.04541
    129       1.00000          -0.477072          -12.98178
    130       1.00000          -0.475844          -12.94837
    131       1.00000          -0.466928          -12.70575
    132       1.00000          -0.465100          -12.65601
    133       1.00000          -0.464832          -12.64872
    134       1.00000          -0.462093          -12.57419
    135       1.00000          -0.460164          -12.52170
    136       1.00000          -0.456840          -12.43124
    137       1.00000          -0.451695          -12.29126
    138       1.00000          -0.451088          -12.27474
    139       1.00000          -0.450549          -12.26006
    140       1.00000          -0.446174          -12.14101
    141       1.00000          -0.439883          -11.96984
    142       1.00000          -0.437258          -11.89839
    143       1.00000          -0.437177          -11.89620
    144       1.00000          -0.434884          -11.83380
    145       1.00000          -0.434822          -11.83210
    146       1.00000          -0.433595          -11.79873
    147       1.00000          -0.432379          -11.76562
    148       1.00000          -0.428786          -11.66787
    149       1.00000          -0.418379          -11.38467
    150       1.00000          -0.416313          -11.32846
    151       1.00000          -0.413907          -11.26299
    152       1.00000          -0.410761          -11.17737
    153       0.00000          -0.188039           -5.11680
    154       0.00000          -0.187689           -5.10727
    155       0.00000          -0.177513           -4.83037
[...]
    172       0.00000          -0.156962           -4.27115
    173       0.00000          -0.153859           -4.18671
    174       0.00000          -0.141630           -3.85396
    175       0.00000          -0.140434           -3.82140
    176       0.00000          -0.139336           -3.79151
    177       0.00000          -0.134734           -3.66630
    178       0.00000          -0.126837           -3.45141
    179       0.00000          -0.124714           -3.39365
    180       0.00000          -0.117321           -3.19247
    181       0.00000          -0.082669           -2.24953
    182       0.00000          -0.082365           -2.24126
    183       0.00000          -0.072041           -1.96034
    184       0.00000          -0.066317           -1.80458
    185       0.00000          -0.065908           -1.79344
    186       0.00000          -0.058032           -1.57913
    187       0.00000          -0.056591           -1.53992
    188       0.00000          -0.056393           -1.53452
    189       0.00000          -0.036760           -1.00029
    190       0.00000          -0.034888           -0.94935
    191       0.00000          -0.022399           -0.60952
    192       0.00000          -0.021464           -0.58406
    193       0.00000          -0.021246           -0.57814
    194       0.00000          -0.012913           -0.35138
    195       0.00000           0.070307            1.91314
    196       0.00000           0.072328            1.96814
    197       0.00000           0.083992            2.28554
    198       0.00000           0.132399            3.60276
    199       0.00000           0.135950            3.69939
    200       0.00000           0.143462            3.90379
    201       0.00000           0.147493            4.01348
    202       0.00000           0.156179            4.24986
    203       0.00000           0.159773            4.34764
    204       0.00000           0.174104            4.73760
    205       0.00000           0.177404            4.82741
    206       0.00000           0.221825            6.03615
    207       0.00000           0.222288            6.04876
    208       0.00000           0.241715            6.57741
    209       0.00000           0.241866            6.58150
    210       0.00000           0.252878            6.88115
    211       0.00000           0.265943            7.23669
    212       0.00000           0.269047            7.32114
    213       0.00000           0.271012            7.37462
    214       0.00000           0.289817            7.88632
    215       0.00000           0.291721            7.93813
    216       0.00000           0.293929            7.99822
    217       0.00000           0.297598            8.09805
    218       0.00000           0.298641            8.12645
    219       0.00000           0.312573            8.50554
    220       0.00000           0.312859            8.51334
    221       0.00000           0.344609            9.37729
    222       0.00000           0.358130            9.74521
    223       0.00000           0.360270            9.80346
    224       0.00000           0.362380            9.86087
    225       0.00000           0.373015           10.15025
    226       0.00000           0.385124           10.47975
    227       0.00000           0.390787           10.63385
    228       0.00000           0.406888           11.07199
    229       0.00000           0.407404           11.08603
    230       0.00000           0.411441           11.19588
    231       0.00000           0.423899           11.53489
    232       0.00000           0.428466           11.65915
    233       0.00000           0.432035           11.75628
    234       0.00000           0.432230           11.76156
    235       0.00000           0.434883           11.83376
    236       0.00000           0.449226           12.22407
    237       0.00000           0.450108           12.24807
    238       0.00000           0.482878           13.13979
    239       0.00000           0.484081           13.17252
    240       0.00000           0.506968           13.79530
    241       0.00000           0.519785           14.14406
    242       0.00000           0.522065           14.20612
    243       0.00000           0.522822           14.22671
    244       0.00000           0.530758           14.44266

  Current spin moment of the entire structure :
  | N = N_up - N_down (sum over all k points):         0.00000
  | S (sum over all k points)                :         0.00000

  What follows are estimated values for band gap, HOMO, LUMO, etc.
  | They are estimated on a discrete k-point grid and not necessarily exact.
  | For converged numbers, create a DOS and/or band structure plot on a denser k-grid.

  Highest occupied state (VBM) at     -7.58128954 eV (relative to internal zero)
  | Occupation number:      1.00000000
  | K-point:       1 at    0.000000    0.000000    0.000000 (in units of recip. lattice)
  | Spin channel:        1

  Lowest unoccupied state (CBM) at    -6.09809024 eV (relative to internal zero)
  | Occupation number:      0.00000000
  | K-point:       1 at    0.000000    0.000000    0.000000 (in units of recip. lattice)
  | Spin channel:        2

  ESTIMATED overall HOMO-LUMO gap:      1.48319930 eV between HOMO at k-point 1 and LUMO at k-point 1
  | This appears to be a direct band gap.
  The gap value is above 0.2 eV. Unless you are using a very sparse k-point grid,
  this system is most likely an insulator or a semiconductor.

  Total energy components:
  | Sum of eigenvalues            :       -4743.62450852 Ha     -129080.59042490 eV
  | XC energy correction          :        -474.16774944 Ha      -12902.76094752 eV
  | XC potential correction       :         613.04317359 Ha       16681.75351177 eV
  | Free-atom electrostatic energy:       -3422.48341818 Ha      -93130.51223686 eV
  | Hartree energy correction     :          -8.42585718 Ha        -229.27923958 eV
  | Entropy correction            :           0.00000000 Ha           0.00000000 eV
  | ---------------------------
  | Total energy                  :       -8035.65835972 Ha     -218661.38933709 eV
  | Total energy, T -> 0          :       -8035.65835972 Ha     -218661.38933709 eV  <-- do not rely on this value for anything but (periodic) metals
  | Electronic free energy        :       -8035.65835972 Ha     -218661.38933709 eV

  Derived energy quantities:
  | Kinetic energy                :        8129.43820022 Ha      221213.26863509 eV
  | Electrostatic energy          :      -15690.92881050 Ha     -426971.89702467 eV
  | Energy correction for multipole
  | error in Hartree potential    :           0.06826388 Ha           1.85755465 eV
  | Sum of eigenvalues per atom                           :       -5378.35793437 eV
  | Total energy (T->0) per atom                          :       -9110.89122238 eV  <-- do not rely on this value for anything but (periodic) metals
  | Electronic free energy per atom                       :       -9110.89122238 eV
  End evaluation of scaled ZORA corrections.
  | Time for scaled ZORA corrections            :        1.576 s           1.577 s
------------------------------------------------------------

  Energy and forces in a compact form:
  | Total energy uncorrected      :         -0.218661389337095E+06 eV
  | Total energy corrected        :         -0.218661389337095E+06 eV  <-- do not rely on this value for anything but (periodic) metals
  | Electronic free energy        :         -0.218661389337095E+06 eV

  ------------------------------------ 
  Start decomposition of the XC Energy 
  ------------------------------------ 
  X and C from original XC functional choice 
  Hartree-Fock Energy :          0.000000000 Ha              0.000000000 eV
  X Energy            :       -462.207648689 Ha         -12577.310047317 eV
  C Energy            :        -11.960100751 Ha           -325.450900207 eV
  XC Energy w/o HF    :       -474.167749440 Ha         -12902.760947523 eV
  Total XC Energy     :       -474.167749440 Ha         -12902.760947523 eV
  ------------------------------------ 
  LDA X and C from self-consistent density 
  X Energy LDA        :       -428.939006675 Ha         -11672.024237686 eV
  C Energy LDA        :        -23.453962278 Ha           -638.214785586 eV
  ------------------------------------ 
  End decomposition of the XC Energy 
  ------------------------------------ 

------------------------------------------------------------

  ------------------------------------------------------------
                   Starting Mulliken Analysis
  ------------------------------------------------------------

  Performing Mulliken charge analysis on all atoms.
  Full analysis will be written to separate file 'Mulliken.out'.
  Summary of the per-atom charge analysis:
  |
  |  atom       electrons          charge             l=0             l=1             l=2             l=3             l=4
  |     1        8.489188       -0.489188        3.880919        4.597407        0.010862
  |     2        8.640366       -0.640366        3.857339        4.772490        0.010536
  |     3       20.746175        1.253825        6.098201       12.425722        2.101425        0.120828
  |     4       20.899941        1.100059        6.043121       12.505014        2.207833        0.143973
  |     5        8.640366       -0.640366        3.857339        4.772491        0.010536
  |     6        8.583964       -0.583964        3.840075        4.733248        0.010641
  |     7        8.583964       -0.583964        3.840075        4.733248        0.010641
  |     8        8.640366       -0.640366        3.857339        4.772491        0.010536
  |     9       20.746173        1.253827        6.098200       12.425722        2.101424        0.120828
  |    10       20.899941        1.100059        6.043121       12.505013        2.207833        0.143973
  |    11        8.640367       -0.640367        3.857339        4.772491        0.010536
  |    12        8.489187       -0.489187        3.880919        4.597405        0.010862
  |    13        8.489188       -0.489188        3.880919        4.597407        0.010862
  |    14        8.640366       -0.640366        3.857339        4.772490        0.010536
  |    15       20.746175        1.253825        6.098201       12.425722        2.101425        0.120828
  |    16       20.899941        1.100059        6.043121       12.505014        2.207833        0.143973
  |    17        8.640366       -0.640366        3.857339        4.772491        0.010536
  |    18        8.583964       -0.583964        3.840075        4.733248        0.010641
  |    19        8.583964       -0.583964        3.840075        4.733248        0.010641
  |    20        8.640366       -0.640366        3.857339        4.772491        0.010536
  |    21       20.746173        1.253827        6.098200       12.425722        2.101424        0.120828
  |    22       20.899941        1.100059        6.043121       12.505013        2.207833        0.143973
  |    23        8.640367       -0.640367        3.857339        4.772491        0.010536
  |    24        8.489187       -0.489187        3.880919        4.597405        0.010862
  |
  | Total      304.000000       -0.000000
 
  Summary of the per-atom spin analysis:
  |
  |  atom   spin      l=0         l=1         l=2         l=3         l=4
  |     1    0.000000   -0.000000    0.000000    0.000000
  |     2   -0.000000   -0.000000   -0.000000    0.000000
  |     3    0.000000    0.000000   -0.000000    0.000000    0.000000
  |     4   -0.000000   -0.000000   -0.000000    0.000000   -0.000000
  |     5   -0.000000    0.000000   -0.000000   -0.000000
  |     6    0.000000    0.000000   -0.000000    0.000000
  |     7   -0.000000    0.000000   -0.000000   -0.000000
  |     8    0.000000    0.000000    0.000000    0.000000
  |     9    0.000000    0.000000    0.000000    0.000000    0.000000
  |    10   -0.000000    0.000000   -0.000000   -0.000000   -0.000000
  |    11   -0.000000   -0.000000    0.000000   -0.000000
  |    12    0.000000   -0.000000    0.000000   -0.000000
  |    13    0.000000   -0.000000    0.000000   -0.000000
  |    14    0.000000    0.000000   -0.000000    0.000000
  |    15    0.000000    0.000000    0.000000    0.000000    0.000000
  |    16    0.000000   -0.000000    0.000000    0.000000   -0.000000
  |    17   -0.000000    0.000000   -0.000000    0.000000
  |    18    0.000000    0.000000    0.000000   -0.000000
  |    19    0.000000    0.000000    0.000000   -0.000000
  |    20    0.000000   -0.000000    0.000000   -0.000000
  |    21    0.000000   -0.000000    0.000000    0.000000    0.000000
  |    22   -0.000000   -0.000000    0.000000   -0.000000    0.000000
  |    23   -0.000000   -0.000000   -0.000000    0.000000
  |    24    0.000000    0.000000    0.000000   -0.000000
  |
  | Total    0.000000
 
  Writing Mulliken decomposition to disk ...

  Mulliken analysis                                       :  max(cpu_time)    wall_clock(cpu1)
  | Time for Mulliken analysis                            :          3.150               3.150
  | Total time for Mulliken analysis                      :          3.150               3.150
------------------------------------------------------------

------------------------------------------------------------------------------
  Final output of selected total energy values:

  The following output summarizes some interesting total energy values
  at the end of a run (AFTER all relaxation, molecular dynamics, etc.).

  | Total energy of the DFT / Hartree-Fock s.c.f. calculation      :        -218661.389337095 eV
  | Final zero-broadening corrected energy (caution - metals only) :        -218661.389337095 eV
  | For reference only, the value of 1 Hartree used in FHI-aims is :             27.211384500 eV
  | For reference only, the overall average (free atom contribution
  | + realspace contribution) of the electrostatic potential after
  | s.c.f. convergence is                                          :             -4.996574883 eV

  Before relying on these values, please be sure to understand exactly which
  total energy value is referred to by a given number. Different objects may
  all carry the same name 'total energy'. Definitions:

  Total energy of the DFT / Hartree-Fock s.c.f. calculation:
  | Note that this energy does not include ANY quantities calculated after the
  | s.c.f. cycle, in particular not ANY RPA, MP2, etc. many-body perturbation terms.
  | Scalar relativistic effects have been included in the 'scaled ZORA' approximation.

  Final zero-broadening corrected energy:
  | For metallic systems only, a broadening of the occupation numbers at the Fermi
  | level can be extrapolated back to zero broadening by an electron-gas inspired
  | formula. For all systems that are not real metals, this value can be
  | meaningless and should be avoided.

------------------------------------------------------------------------------
  Methods described in the following list of references were used in this FHI-aims run.
  If you publish the results, please make sure to cite these reference if they apply.
  FHI-aims is an academic code, and for our developers (often, Ph.D. students
  and postdocs), scientific credit in the community is essential.
  Thank you for helping us!

  For any use of FHI-aims, please cite:

    Volker Blum, Ralf Gehrke, Felix Hanke, Paula Havu, Ville Havu,
    Xinguo Ren, Karsten Reuter, and Matthias Scheffler
    'Ab initio molecular simulations with numeric atom-centered orbitals'
    Computer Physics Communications 180, 2175-2196 (2009)
    http://doi.org/10.1016/j.cpc.2009.06.022


  The provided symmetry information was generated with SPGlib:

    Atsushi Togo, Yusuke Seto, Dimitar Pashov
    SPGlib 1.7.3 obtained from http://spglib.sourceforge.net
    Licence: New BSD license
    Copyright (C) 2008 Atsushi Togo


  The ELSI infrastructure was used in your run to solve the Kohn-Sham electronic structure.
  Please check out https://wordpress.elsi-interchange.org to learn more.
  If scalability is important for your project, please acknowledge ELSI by citing:

    V. W-z. Yu, F. Corsetti, A. Garcia, W. P. Huhn, M. Jacquelin, W. Jia,
    B. Lange, L. Lin, J. Lu, W. Mi, A. Seifitokaldani, A. Vazquez-Mayagoitia,
    C. Yang, H. Yang, and V. Blum
    'ELSI: A unified software interface for Kohn-Sham electronic structure solvers'
    Computer Physics Communications 222, 267-285 (2018).
    http://doi.org/10.1016/j.cpc.2017.09.007


  For the real-space grid partitioning and parallelization used in this calculation, please cite:

    Ville Havu, Volker Blum, Paula Havu, and Matthias Scheffler,
    'Efficient O(N) integration for all-electron electronic structure calculation'
    'using numerically tabulated basis functions'
    Journal of Computational Physics 228, 8367-8379 (2009).
    http://doi.org/10.1016/j.jcp.2009.08.008

  Of course, there are many other important community references, e.g., those cited in the
  above references. Our list is limited to references that describe implementations in the
  FHI-aims code. The reason is purely practical (length of this list) - please credit others as well.

------------------------------------------------------------
          Leaving FHI-aims.
          Date     :  20250315, Time     :  164721.504

          Computational steps:
          | Number of self-consistency cycles          :           22
          | Number of SCF (re)initializations          :            1

          Detailed time accounting                     :  max(cpu_time)    wall_clock(cpu1)
          | Total time                                  :       84.237 s          84.240 s
          | Preparation time                            :        0.529 s           0.527 s
          | Boundary condition initalization            :        0.053 s           0.054 s
          | Grid partitioning                           :        0.146 s           0.146 s
          | Preloading free-atom quantities on grid     :        0.396 s           0.395 s
          | Free-atom superposition energy              :        0.037 s           0.037 s
          | Total time for integrations                 :       21.840 s          21.841 s
          | Total time for solution of K.-S. equations  :        9.489 s           9.487 s
          | Total time for density update               :       22.391 s          22.393 s
          | Total time for mixing & preconditioning     :       22.115 s          22.112 s
          | Total time for Hartree multipole update     :        0.060 s           0.062 s
          | Total time for Hartree multipole sum        :        2.439 s           2.438 s
          | Total time for total energy evaluation      :        0.011 s           0.012 s
          | Total time for scaled ZORA corrections      :        1.576 s           1.577 s
          | Total time for Mulliken analysis            :        3.150 s           3.150 s

          Partial memory accounting:
          | Residual value for overall tracked memory usage across tasks:     0.000000 MB (should be 0.000000 MB)
          | Peak values for overall tracked memory usage:
          |   Minimum:       40.649 MB (on task 29 after allocating zora_vector2)
          |   Maximum:       45.795 MB (on task  1 after allocating zora_vector2)
          |   Average:       42.208 MB
          | Largest tracked array allocation:
          |   Minimum:        8.522 MB (hamiltonian on task  0)
          |   Maximum:        8.522 MB (hamiltonian on task  0)
          |   Average:        8.522 MB
          Note:  These values currently only include a subset of arrays which are explicitly tracked.
          The "true" memory usage will be greater.

          Have a nice day.
------------------------------------------------------------
