------------------------------------------------------------
          Invoking FHI-aims ...

          When using FHI-aims, please cite the following reference:

            Volker Blum, Ralf Gehrke, Felix Hanke, Paula Havu,
            Ville Havu, Xinguo Ren, Karsten Reuter, and Matthias Scheffler,
            'Ab Initio Molecular Simulations with Numeric Atom-Centered Orbitals',
            Computer Physics Communications 180, 2175-2196 (2009)

          In addition, many other developments in FHI-aims are likely important for
          your particular application. If so, please cite them. A partial list of references
          is written at the end of this file. Thank you for giving credit to the authors
          of these developments.

          For general information about FHI-aims please find us at

            https://fhi-aims.org

          Online tutorials can be found at

            https://fhi-aims-club.gitlab.io/tutorials/tutorials-overview/

          For any questions about FHI-aims, please visit our slack channel at

            https://fhi-aims.slack.com

          and our main development and support site at

            https://aims-git.rz-berlin.mpg.de .

          The latter site, in particular, has a wiki to collect information, as well
          as an issue tracker to log discussions, suggest improvements, and report issues
          or bugs. https://aims-git.rz-berlin.mpg.de is also the main development site
          of the project and all new and updated code versions can be obtained there.
          Please send an email to aims-coordinators@fhi-berlin.mpg.de and we will add
          you to these sites. They are for you and everyone is welcome there.

------------------------------------------------------------



  Date     :  20250120, Time     :  140852.032
  Time zero on CPU 1             :   0.491115000000000E+00  s.
  Internal wall clock time zero  :           506614132.032  s.

  FHI-aims created a unique identifier for this run for later identification
  aims_uuid : 15032310-9712-46F0-A8FF-529A342F81B8

  Build configuration of the current instance of FHI-aims
  -------------------------------------------------------
  FHI-aims version      : 240605
  Commit number         : b001b2e18
  CMake host system     : Linux-6.5.0-41-generic
  CMake version         : 3.22.1
  Fortran compiler      : /opt/intel/oneapi/mpi/2021.12/bin/mpiifort (IntelLLVM) version 2024.1.0
  Fortran compiler flags: -fc=ifx -O3 -ip -fp-model precise
  C compiler            : /opt/intel/oneapi/mpi/2021.12/bin/mpiicc (IntelLLVM) version 2024.1.0
  C compiler flags      : -cc=icx -O3 -ip -fp-model precise -std=gnu99
  C++ compiler          : /opt/intel/oneapi/mpi/2021.12/bin/mpiicpc (IntelLLVM) version 2024.1.0
  C++ compiler flags    : -cxx=icpx -O3 -ip -fp-model precise -std=c++11
  HIP compiler          :
  HIP compiler flags    :
  HIP GPU arch          :
  Using MPI
  Using ScaLAPACK
  Using LibXC
  Using i-PI
  Using RLSY
  Linking against: /opt/intel/oneapi/mkl/2024.1/lib/intel64/libmkl_intel_lp64.so
                   /opt/intel/oneapi/mkl/2024.1/lib/intel64/libmkl_sequential.so
                   /opt/intel/oneapi/mkl/2024.1/lib/intel64/libmkl_core.so
                   /opt/intel/oneapi/mkl/2024.1/lib/intel64/libmkl_blacs_intelmpi_lp64.so
                   /opt/intel/oneapi/mkl/2024.1/lib/intel64/libmkl_scalapack_lp64.so
                   /opt/intel/oneapi/mkl/2024.1/lib/intel64/libmkl_core.so

  Using       32 parallel tasks.
  Task        0 on host RSL-arvutus reporting.
  Task        1 on host RSL-arvutus reporting.
  Task        2 on host RSL-arvutus reporting.
  Task        3 on host RSL-arvutus reporting.
  Task        4 on host RSL-arvutus reporting.
  Task        5 on host RSL-arvutus reporting.
  Task        6 on host RSL-arvutus reporting.
  Task        7 on host RSL-arvutus reporting.
  Task        8 on host RSL-arvutus reporting.
  Task        9 on host RSL-arvutus reporting.
  Task       10 on host RSL-arvutus reporting.
  Task       11 on host RSL-arvutus reporting.
  Task       12 on host RSL-arvutus reporting.
  Task       13 on host RSL-arvutus reporting.
  Task       14 on host RSL-arvutus reporting.
  Task       15 on host RSL-arvutus reporting.
  Task       16 on host RSL-arvutus reporting.
  Task       17 on host RSL-arvutus reporting.
  Task       18 on host RSL-arvutus reporting.
  Task       19 on host RSL-arvutus reporting.
  Task       20 on host RSL-arvutus reporting.
  Task       21 on host RSL-arvutus reporting.
  Task       22 on host RSL-arvutus reporting.
  Task       23 on host RSL-arvutus reporting.
  Task       24 on host RSL-arvutus reporting.
  Task       25 on host RSL-arvutus reporting.
  Task       26 on host RSL-arvutus reporting.
  Task       27 on host RSL-arvutus reporting.
  Task       28 on host RSL-arvutus reporting.
  Task       29 on host RSL-arvutus reporting.
  Task       30 on host RSL-arvutus reporting.
  Task       31 on host RSL-arvutus reporting.

  Memory overcommitment is allowed on your operating system.

  Obtaining array dimensions for all initial allocations:
  
  -----------------------------------------------------------------------
  Parsing control.in (first pass over file, find array dimensions only).
  The contents of control.in will be repeated verbatim below
  unless switched off by setting 'verbatim_writeout .false.' .
  in the first line of control.in .
  -----------------------------------------------------------------------
  
    xc              pbe
    relativistic    zora scalar 1.0e-12
    k_grid          5 5 8
  
    charge	  1.0
    output          Mulliken
  
  
  ################################################################################
  #
  #  FHI-aims code project
  #  VB, Fritz-Haber Institut, 2009
  #
  #  Suggested "light" defaults for Ti atom (to be pasted into control.in file)
  #  Be sure to double-check any results obtained with these settings for post-processing,
  #  e.g., with the "tight" defaults and larger basis sets.
  #
  ################################################################################
    species        Ti
  #     global species definitions
      nucleus             22
      mass                47.867
  #
      l_hartree           4
  #
      cut_pot             3.5          1.5  1.0
      basis_dep_cutoff    1e-4
  #
      radial_base         48 5.0
      radial_multiplier   1
      angular_grids       specified
        division   0.5171   50
        division   0.9824  110
        division   1.2917  194
        division   1.4940  302
  #      division   1.6934  434
  #      division   1.8425  590
  #      division   2.1901  770
  #      division   2.2896  974
  #      division   2.8244 1202
  #      outer_grid  974
        outer_grid  302
  ################################################################################
  #
  #  Definition of "minimal" basis
  #
  ################################################################################
  #     valence basis states
      valence      4  s   2.
      valence      3  p   6.
      valence      3  d   2.
  #     ion occupancy
      ion_occ      4  s   1.
      ion_occ      3  p   6.
      ion_occ      3  d   1.
  ################################################################################
  #
  #  Suggested additional basis functions. For production calculations,
  #  uncomment them one after another (the most important basis functions are
  #  listed first).
  #
  #  Constructed for dimers: 1.6 A, 1.85 A, 2.5 A, 3.25 A, 4.25 A
  #
  ################################################################################
  #  "First tier" - improvements: -396.25 meV to -19.41 meV
       hydro 4 f 8
       hydro 3 d 2.7
       ionic 4 p auto
  #     hydro 5 g 11.6
       ionic 4 s auto
  #  "Second tier" - improvements: -16.30 meV to -2.03 meV
  #     hydro 3 d 4.4
  #     hydro 6 h 16
  #     hydro 4 f 9.4
  #     hydro 4 p 4.5
  #     hydro 1 s 0.5
  #  "Third tier" - improvements: -6.28 meV to -0.37 meV
  #     hydro 4 d 6.4
  #     hydro 4 f 10
  #     hydro 5 g 12
  #     hydro 2 p 1.7
  #     hydro 6 h 16.4
  #     hydro 4 s 3.8
  #  Further basis functions: -0.45 meV and smaller improvements
  #     hydro 3 d 8.8
  #     hydro 5 p 18
  #     hydro 4 f 22.4
  #     hydro 5 f 7.2  # -0.16 meV
  #     hydro 3 d 2.1  # -0.11 meV
  #     hydro 5 g 7.4  # -0.09 meV
  
  
  ################################################################################
  #
  #  FHI-aims code project
  #  VB, Fritz-Haber Institut, 2009
  #
  #  Suggested "light" defaults for O atom (to be pasted into control.in file)
  #  Be sure to double-check any results obtained with these settings for post-processing,
  #  e.g., with the "tight" defaults and larger basis sets.
  #
  ################################################################################
    species        O
  #     global species definitions
      nucleus             8
      mass                15.9994
  #
      l_hartree           4
  #
      cut_pot             3.5  1.5  1.0
      basis_dep_cutoff    1e-4
  #
      radial_base         36 5.0
      radial_multiplier   1
       angular_grids specified
        division   0.2659   50
        division   0.4451  110
        division   0.6052  194
        division   0.7543  302
  #      division   0.8014  434
  #      division   0.8507  590
  #      division   0.8762  770
  #      division   0.9023  974
  #      division   1.2339 1202
  #      outer_grid 974
        outer_grid 302
  ################################################################################
  #
  #  Definition of "minimal" basis
  #
  ################################################################################
  #     valence basis states
      valence      2  s   2.
      valence      2  p   4.
  #     ion occupancy
      ion_occ      2  s   1.
      ion_occ      2  p   3.
  ################################################################################
  #
  #  Suggested additional basis functions. For production calculations,
  #  uncomment them one after another (the most important basis functions are
  #  listed first).
  #
  #  Constructed for dimers: 1.0 A, 1.208 A, 1.5 A, 2.0 A, 3.0 A
  #
  ################################################################################
  #  "First tier" - improvements: -699.05 meV to -159.38 meV
       hydro 2 p 1.8
       hydro 3 d 7.6
       hydro 3 s 6.4
  #  "Second tier" - improvements: -49.91 meV to -5.39 meV
  #     hydro 4 f 11.6
  #     hydro 3 p 6.2
  #     hydro 3 d 5.6
  #     hydro 5 g 17.6
  #     hydro 1 s 0.75
  #  "Third tier" - improvements: -2.83 meV to -0.50 meV
  #     ionic 2 p auto
  #     hydro 4 f 10.8
  #     hydro 4 d 4.7
  #     hydro 2 s 6.8
  #  "Fourth tier" - improvements: -0.40 meV to -0.12 meV
  #     hydro 3 p 5
  #     hydro 3 s 3.3
  #     hydro 5 g 15.6
  #     hydro 4 f 17.6
  #     hydro 4 d 14
  # Further basis functions - -0.08 meV and below
  #     hydro 3 s 2.1
  #     hydro 4 d 11.6
  #     hydro 3 p 16
  #     hydro 2 s 17.2
  ################################################################################
  #
  #  FHI-aims code project
  #  VB, Fritz-Haber Institut, 2009
  #
  #  Suggested "light" defaults for F atom (to be pasted into control.in file)
  #  Be sure to double-check any results obtained with these settings for post-processing,
  #  e.g., with the "tight" defaults and larger basis sets.
  #
  ################################################################################
    species        F
  #     global species definitions
      nucleus             9
      mass                18.9984032
  #
      l_hartree           4
  #
      cut_pot             3.5  1.5  1.0
      basis_dep_cutoff    1e-4
  #
      radial_base         37 5.0
      radial_multiplier   1
      angular_grids specified
        division   0.4014  110
        division   0.5291  194
        division   0.6019  302
  #      division   0.6814  434
  #      division   0.7989  590
  #      division   0.8965  770
  #      division   1.3427  974
  #      outer_grid   974
        outer_grid   302
  ################################################################################
  #
  #  Definition of "minimal" basis
  #
  ################################################################################
  #     valence basis states
      valence      2  s   2.
      valence      2  p   5.
  #     ion occupancy
      ion_occ      2  s   1.
      ion_occ      2  p   4.
  ################################################################################
  #
  #  Suggested additional basis functions. For production calculations,
  #  uncomment them one after another (the most important basis functions are
  #  listed first).
  #
  #  Constructed for dimers: 1.2 A, 1.418 A, 1.75 A, 2.25 A, 3.25 A
  #
  ################################################################################
  #  "First tier" - improvements: -149.44 meV to -45.88 meV
       hydro 2 p 1.7
       hydro 3 d 7.4
       hydro 3 s 6.8
  #  "Second tier" - improvements: -12.96 meV to -1.56 meV
  #     hydro 4 f 11.2
  #     ionic 2 p auto
  #     hydro 1 s 0.75
  #     hydro 4 d 8.8
  #     hydro 5 g 16.8
  #  "Third tier" - improvements: -0.58 meV to -0.05 meV
  #     hydro 3 p 6.2
  #     hydro 3 s 3.2
  #     hydro 4 f 9.6
  #     hydro 3 s 19.6
  #     hydro 4 d 8.6
  #     hydro 5 g 14.4
  # Further basis functions: -0.05 meV and below
  #     hydro 3 p 4.2
  
  -----------------------------------------------------------------------
  Completed first pass over input file control.in .
  -----------------------------------------------------------------------
  
  
  -----------------------------------------------------------------------
  Parsing geometry.in (first pass over file, find array dimensions only).
  The contents of geometry.in will be repeated verbatim below
  unless switched off by setting 'verbatim_writeout .false.' .
  in the first line of geometry.in .
  -----------------------------------------------------------------------
  
  #
  # This is the geometry file that corresponds to the current relaxation step.
  # If you do not want this file to be written, set the "write_restart_geometry" flag to .false.
  #  aims_uuid : 9BA3B050-7FA5-4173-AC7B-B01C22C4F404
  #
  lattice_vector      9.28630678      0.00002283     -0.00000001
  lattice_vector      0.00002292      9.28637558     -0.00000001
  lattice_vector     -0.00000004     -0.00000009      5.94535168
  atom_frac       0.00001042      0.00001109     -0.00006141 Ti
  atom_frac       0.25000609      0.25000588      0.25002440 Ti
  atom_frac       0.15277473      0.15278038     -0.00001470 F
  atom_frac       0.34722235      0.34721380     -0.00001473 O
  atom_frac       0.09722691      0.40278923      0.25002243 O
  atom_frac       0.40278389      0.09721906      0.25002244 O
  atom_frac       0.00001042      0.00001109      0.49993931 Ti
  atom_frac       0.25000663      0.25000510      0.75002440 Ti
  atom_frac       0.15277470      0.15278039      0.49998928 O
  atom_frac       0.34722234      0.34721383      0.49998931 O
  atom_frac       0.09723020      0.40278554      0.75002244 O
  atom_frac       0.40277938      0.09722317      0.75002242 O
  atom_frac       0.00001086      0.50002681      0.00006322 Ti
  atom_frac       0.25001347      0.75001190      0.24997562 Ti
  atom_frac       0.15276750      0.65277937      0.00001467 O
  atom_frac       0.34722125      0.84721002      0.00001464 O
  atom_frac       0.09723729      0.90278836      0.24997758 O
  atom_frac       0.40278339      0.59722962      0.24997758 O
  atom_frac       0.00001087      0.50002681      0.50005885 Ti
  atom_frac       0.25001336      0.75001136      0.74997562 Ti
  atom_frac       0.15276750      0.65277936      0.50001078 O
  atom_frac       0.34722126      0.84721002      0.50001081 O
  atom_frac       0.09723256      0.90279194      0.74997759 O
  atom_frac       0.40278670      0.59722516      0.74997760 O
  atom_frac       0.50002657      0.00001063      0.00007883 Ti
  atom_frac       0.75001320      0.25001151      0.24997563 Ti
  atom_frac       0.65277432      0.15277314      0.00001464 O
  atom_frac       0.84721396      0.34721674      0.00001470 O
  atom_frac       0.59723558      0.40278585      0.24997759 O
  atom_frac       0.90278353      0.09723140      0.24997759 O
  atom_frac       0.50002657      0.00001063      0.50004326 Ti
  atom_frac       0.75001331      0.25001207      0.74997563 Ti
  atom_frac       0.65277431      0.15277314      0.50001083 O
  atom_frac       0.84721396      0.34721675      0.50001078 O
  atom_frac       0.59723228      0.40279032      0.74997761 O
  atom_frac       0.90278828      0.09722783      0.74997761 O
  atom_frac       0.50001506      0.50000689     -0.00005619 Ti
  atom_frac       0.75000672      0.75000519      0.25002435 Ti
  atom_frac       0.65277571      0.65277678     -0.00001476 O
  atom_frac       0.84722148      0.84721763     -0.00001475 O
  atom_frac       0.59722846      0.90278389      0.25002240 O
  atom_frac       0.90278138      0.59722504      0.25002238 O
  atom_frac       0.50001506      0.50000689      0.49993407 Ti
  atom_frac       0.75000616      0.75000596      0.75002435 Ti
  atom_frac       0.65277572      0.65277676      0.49998926 O
  atom_frac       0.84722151      0.84721763      0.49998925 O
  atom_frac       0.59723295      0.90277978      0.75002238 O
  atom_frac       0.90277807      0.59722873      0.75002239 O
  #
  # What follows is the current estimated Hessian matrix constructed by the BFGS algorithm.
  # This is NOT the true Hessian matrix of the system.
  # If you do not want this information here, switch it off using the "hessian_to_restart_geometry" keyword.
  #
  trust_radius             0.0015435619
  hessian_file
  
  -----------------------------------------------------------------------
  Completed first pass over input file geometry.in .
  -----------------------------------------------------------------------
  

  Basic array size parameters:
  | Number of species                 :        3
  | Number of atoms                   :       48
  | Number of lattice vectors         :        3
  | Max. basis fn. angular momentum   :        3
  | Max. atomic/ionic basis occupied n:        4
  | Max. number of basis fn. types    :        3
  | Max. radial fns per species/type  :        7
  | Max. logarithmic grid size        :     1383
  | Max. radial integration grid size :       48
  | Max. angular integration grid size:      302
  | Max. angular grid division number :        8
  | Radial grid for Hartree potential :     1383
  | Number of spin channels           :        1

------------------------------------------------------------
          Reading file control.in.
------------------------------------------------------------
  XC: Using PBE gradient-corrected functionals.
  Scalar relativistic treatment of kinetic energy: ZORA.
  Threshold value for ZORA:   0.100000E-11
  Found k-point grid:         5         5         8
  Charged system requested: Charge =   0.100000E+01.
  Mulliken charge analysis will be performed and summarised to the main output.
  Full Mulliken charge analysis will be written to file 'Mulliken.out'.
 
  Reading configuration options for species Ti                  .
  | Found nuclear charge :  22.0000
  | Found atomic mass :    47.8670000000000      amu
  | Found l_max for Hartree potential  :   4
  | Found cutoff potl. onset [A], width [A], scale factor :    3.50000    1.50000    1.00000
  | Threshold for basis-dependent cutoff potential is   0.100000E-03
  | Found data for basic radial integration grid :    48 points, outermost radius =    5.000 A
  | Found multiplier for basic radial grid :   1
  | Found angular grid specification: user-specified.
  | Specified grid contains     5 separate shells.
  | Check grid settings after all constraints further below.
  | Found free-atom valence shell :  4 s   2.000
  | Found free-atom valence shell :  3 p   6.000
  | Found free-atom valence shell :  3 d   2.000
  | Found free-ion valence shell :  4 s   1.000
  | Found free-ion valence shell :  3 p   6.000
  | Found free-ion valence shell :  3 d   1.000
  | Found hydrogenic basis function :  4 f   8.000
  | Found hydrogenic basis function :  3 d   2.700
  | Found ionic basis function :  4 p , default cutoff radius.
  | Found ionic basis function :  4 s , default cutoff radius.
 | Encountered keyword species, ending the description of species Ti                  .
  Species Ti                  : Missing cutoff potential type.
  Defaulting to exp(1/x)/(1-x)^2 type cutoff potential.
  Species Ti: No 'logarithmic' tag. Using default grid for free atom:
  | Default logarithmic grid data [bohr] : 0.1000E-03 0.1000E+03 0.1012E+01
  | Will include ionic basis functions of  2.0-fold positive Ti                   ion.
  Species Ti: On-site basis accuracy parameter (for Gram-Schmidt orthonormalisation) not specified.
  Using default value basis_acc =  0.1000000E-03.
  Species Ti                  : Using default innermost maximum threshold i_radial=  2 for radial functions.
  Species Ti                  : Default cutoff onset for free atom density etc. : 0.35000000E+01 AA.
  Species Ti                  : Basic radial grid will be enhanced according to radial_multiplier =   1, to contain    48 grid points.
 
  Reading configuration options for species O                   .
  | Found nuclear charge :   8.0000
  | Found atomic mass :    15.9994000000000      amu
  | Found l_max for Hartree potential  :   4
  | Found cutoff potl. onset [A], width [A], scale factor :    3.50000    1.50000    1.00000
  | Threshold for basis-dependent cutoff potential is   0.100000E-03
  | Found data for basic radial integration grid :    36 points, outermost radius =    5.000 A
  | Found multiplier for basic radial grid :   1
  | Found angular grid specification: user-specified.
  | Specified grid contains     5 separate shells.
  | Check grid settings after all constraints further below.
  | Found free-atom valence shell :  2 s   2.000
  | Found free-atom valence shell :  2 p   4.000
  | Found free-ion valence shell :  2 s   1.000
  | Found free-ion valence shell :  2 p   3.000
  | Found hydrogenic basis function :  2 p   1.800
  | Found hydrogenic basis function :  3 d   7.600
  | Found hydrogenic basis function :  3 s   6.400
 | Encountered keyword species, ending the description of species O                   .
  Species O                   : Missing cutoff potential type.
  Defaulting to exp(1/x)/(1-x)^2 type cutoff potential.
  Species O : No 'logarithmic' tag. Using default grid for free atom:
  | Default logarithmic grid data [bohr] : 0.1000E-03 0.1000E+03 0.1012E+01
  Species O : On-site basis accuracy parameter (for Gram-Schmidt orthonormalisation) not specified.
  Using default value basis_acc =  0.1000000E-03.
  Species O                   : Using default innermost maximum threshold i_radial=  2 for radial functions.
  Species O                   : Default cutoff onset for free atom density etc. : 0.35000000E+01 AA.
  Species O                   : Basic radial grid will be enhanced according to radial_multiplier =   1, to contain    36 grid points.
 
  Reading configuration options for species F                   .
  | Found nuclear charge :   9.0000
  | Found atomic mass :    18.9984032000000      amu
  | Found l_max for Hartree potential  :   4
  | Found cutoff potl. onset [A], width [A], scale factor :    3.50000    1.50000    1.00000
  | Threshold for basis-dependent cutoff potential is   0.100000E-03
  | Found data for basic radial integration grid :    37 points, outermost radius =    5.000 A
  | Found multiplier for basic radial grid :   1
  | Found angular grid specification: user-specified.
  | Specified grid contains     4 separate shells.
  | Check grid settings after all constraints further below.
  | Found free-atom valence shell :  2 s   2.000
  | Found free-atom valence shell :  2 p   5.000
  | Found free-ion valence shell :  2 s   1.000
  | Found free-ion valence shell :  2 p   4.000
  | Found hydrogenic basis function :  2 p   1.700
  | Found hydrogenic basis function :  3 d   7.400
  | Found hydrogenic basis function :  3 s   6.800
  Species F                   : Missing cutoff potential type.
  Defaulting to exp(1/x)/(1-x)^2 type cutoff potential.
  Species F : No 'logarithmic' tag. Using default grid for free atom:
  | Default logarithmic grid data [bohr] : 0.1000E-03 0.1000E+03 0.1012E+01
  Species F : On-site basis accuracy parameter (for Gram-Schmidt orthonormalisation) not specified.
  Using default value basis_acc =  0.1000000E-03.
  Species F                   : Using default innermost maximum threshold i_radial=  2 for radial functions.
  Species F                   : Default cutoff onset for free atom density etc. : 0.35000000E+01 AA.
  Species F                   : Basic radial grid will be enhanced according to radial_multiplier =   1, to contain    37 grid points.
 
  Finished reading input file 'control.in'.
 
------------------------------------------------------------


------------------------------------------------------------
          Reading geometry description geometry.in.
------------------------------------------------------------
  Found keyword 'hessian_file', indicating that this is the continuation of a structure optimization.
  However, the control.in file does not request the geometry to be optimized.
  Ignoring the request for a file 'hessian.aims' to be present.
  | The smallest distance between any two atoms is         1.95910904 AA.
  | The first atom of this pair is atom number                     14 .
  | The second atom of this pair is atom number                    16 .
  | Wigner-Seitz cell of the first atom image           0     0     0 .
  | (The Wigner-Seitz cell of the second atom is 0 0 0  by definition.)

  Symmetry information by spglib:
  | Precision set to  0.1E-04
  | Number of Operations  : 1
  | Space group           : 1
  | International         : P1      /op
  | Schoenflies           : C1^1
  Input structure read successfully.
  The structure contains       48 atoms,  and a total of        608.000 electrons.

  Input geometry:
  | Unit cell:
  |        9.28630678        0.00002283       -0.00000001
  |        0.00002292        9.28637558       -0.00000001
  |       -0.00000004       -0.00000009        5.94535168
  | Atomic structure:
  |       Atom                x [A]            y [A]            z [A]
  |    1: Species Ti            0.00009676        0.00010299       -0.00036510
  |    2: Species Ti            2.32163897        2.32165418        1.48648298
  |    3: Species F             1.41871651        1.41877948       -0.00008740
  |    4: Species O             3.22442122        3.22436568       -0.00008758
  |    5: Species O             0.90288814        3.74045427        1.48647127
  |    6: Species O             3.74037699        0.90282188        1.48647133
  |    7: Species Ti            0.00009674        0.00010294        2.97231502
  |    8: Species Ti            2.32164396        2.32164690        4.45915882
  |    9: Species O             1.41871621        1.41877953        2.97261210
  |   10: Species O             3.22442111        3.22436591        2.97261228
  |   11: Species O             0.90291867        3.74041995        4.45914717
  |   12: Species O             3.74033509        0.90286000        4.45914705
  |   13: Species Ti            0.00011231        4.64343676        0.00037586
  |   14: Species Ti            2.32171896        6.96489788        1.48619296
  |   15: Species O             1.41866083        6.06195789        0.00008721
  |   16: Species O             3.22442247        7.86751837        0.00008703
  |   17: Species O             0.90299599        8.38363398        1.48620462
  |   18: Species O             3.74038380        5.54610773        1.48620462
  |   19: Species Ti            0.00011238        4.64343671        2.97302572
  |   20: Species Ti            2.32171792        6.96489282        4.45886880
  |   21: Species O             1.41866081        6.06195775        2.97273992
  |   22: Species O             3.22442254        7.86751832        2.97274010
  |   23: Species O             0.90295204        8.38366718        4.45888051
  |   24: Species O             3.74041452        5.54606627        4.45888057
  |   25: Species Ti            4.64340013        0.00011013        0.00046867
  |   26: Species Ti            6.96485838        2.32171788        1.48619302
  |   27: Species O             6.06186610        1.41872366        0.00008703
  |   28: Species O             7.86749670        3.22440440        0.00008738
  |   29: Species O             5.54612204        3.74043429        1.48620467
  |   30: Species O             8.38352703        0.90294789        1.48620467
  |   31: Species Ti            4.64340011        0.00011008        2.97293303
  |   32: Species Ti            6.96485939        2.32172304        4.45886886
  |   33: Species O             6.06186598        1.41872361        2.97274022
  |   34: Species O             7.86749668        3.22440445        2.97273992
  |   35: Species O             5.54609137        3.74047576        4.45888063
  |   36: Species O             8.38357112        0.90291469        4.45888063
  |   37: Species Ti            4.64330470        4.64326319       -0.00033408
  |   38: Species Ti            6.96480967        6.96484698        1.48648267
  |   39: Species O             6.06189046        6.06194525       -0.00008777
  |   40: Species O             7.86757799        7.86760045       -0.00008771
  |   41: Species O             5.54606738        8.38360388        1.48647108
  |   42: Species O             8.38351853        5.54607662        1.48647096
  |   43: Species Ti            4.64330468        4.64326314        2.97228385
  |   44: Species Ti            6.96480445        6.96485409        4.45915851
  |   45: Species O             6.06189054        6.06194502        2.97261197
  |   46: Species O             7.86757825        7.86760041        2.97261191
  |   47: Species O             5.54610905        8.38356567        4.45914680
  |   48: Species O             8.38348777        5.54611084        4.45914686

  Lattice parameters for 3D lattice (in Angstroms) :     9.286307    9.286376    5.945352
  Angle(s) between unit vectors (in degrees)       :    90.000001   90.000000   89.999718


  Quantities derived from the lattice vectors (in Angstrom^-1):
  | Reciprocal lattice vector 1:  0.676608 -0.000002  0.000000
  | Reciprocal lattice vector 2: -0.000002  0.676603  0.000000
  | Reciprocal lattice vector 3:  0.000000  0.000000  1.056823
  | Unit cell volume                               :   0.512704E+03  Angstrom^3

  Fractional coordinates:
                         L1                L2                L3
       atom_frac         0.00001042        0.00001109       -0.00006141  Ti
       atom_frac         0.25000609        0.25000588        0.25002440  Ti
       atom_frac         0.15277473        0.15278038       -0.00001470  F
       atom_frac         0.34722235        0.34721380       -0.00001473  O
       atom_frac         0.09722691        0.40278923        0.25002243  O
       atom_frac         0.40278389        0.09721906        0.25002244  O
       atom_frac         0.00001042        0.00001109        0.49993931  Ti
       atom_frac         0.25000663        0.25000510        0.75002440  Ti
       atom_frac         0.15277470        0.15278039        0.49998928  O
       atom_frac         0.34722234        0.34721383        0.49998931  O
       atom_frac         0.09723020        0.40278554        0.75002244  O
       atom_frac         0.40277938        0.09722317        0.75002242  O
       atom_frac         0.00001086        0.50002681        0.00006322  Ti
       atom_frac         0.25001347        0.75001190        0.24997562  Ti
       atom_frac         0.15276750        0.65277937        0.00001467  O
       atom_frac         0.34722125        0.84721002        0.00001464  O
       atom_frac         0.09723729        0.90278836        0.24997758  O
       atom_frac         0.40278339        0.59722962        0.24997758  O
       atom_frac         0.00001087        0.50002681        0.50005885  Ti
       atom_frac         0.25001336        0.75001136        0.74997562  Ti
       atom_frac         0.15276750        0.65277936        0.50001078  O
       atom_frac         0.34722126        0.84721002        0.50001081  O
       atom_frac         0.09723256        0.90279194        0.74997759  O
       atom_frac         0.40278670        0.59722516        0.74997760  O
       atom_frac         0.50002657        0.00001063        0.00007883  Ti
       atom_frac         0.75001320        0.25001151        0.24997563  Ti
       atom_frac         0.65277432        0.15277314        0.00001464  O
       atom_frac         0.84721396        0.34721674        0.00001470  O
       atom_frac         0.59723558        0.40278585        0.24997759  O
       atom_frac         0.90278353        0.09723140        0.24997759  O
       atom_frac         0.50002657        0.00001063        0.50004326  Ti
       atom_frac         0.75001331        0.25001207        0.74997563  Ti
       atom_frac         0.65277431        0.15277314        0.50001083  O
       atom_frac         0.84721396        0.34721675        0.50001078  O
       atom_frac         0.59723228        0.40279032        0.74997761  O
       atom_frac         0.90278828        0.09722783        0.74997761  O
       atom_frac         0.50001506        0.50000689       -0.00005619  Ti
       atom_frac         0.75000672        0.75000519        0.25002435  Ti
       atom_frac         0.65277571        0.65277678       -0.00001476  O
       atom_frac         0.84722148        0.84721763       -0.00001475  O
       atom_frac         0.59722846        0.90278389        0.25002240  O
       atom_frac         0.90278138        0.59722504        0.25002238  O
       atom_frac         0.50001506        0.50000689        0.49993407  Ti
       atom_frac         0.75000616        0.75000596        0.75002435  Ti
       atom_frac         0.65277572        0.65277676        0.49998926  O
       atom_frac         0.84722151        0.84721763        0.49998925  O
       atom_frac         0.59723295        0.90277978        0.75002238  O
       atom_frac         0.90277807        0.59722873        0.75002239  O

  Slab Identifier: This seems to be a bulk system.
 
  Finished reading input file 'geometry.in'.
 

 
  Consistency checks for stacksize environment parameter are next.
 
  | Maximum stacksize for task 0: unlimited
  | Maximum stacksize for task 1: unlimited
  | Maximum stacksize for task 2: unlimited
  | Maximum stacksize for task 3: unlimited
  | Maximum stacksize for task 4: unlimited
  | Maximum stacksize for task 5: unlimited
  | Maximum stacksize for task 6: unlimited
  | Maximum stacksize for task 7: unlimited
  | Maximum stacksize for task 8: unlimited
  | Maximum stacksize for task 9: unlimited
  | Maximum stacksize for task 10: unlimited
  | Maximum stacksize for task 11: unlimited
  | Maximum stacksize for task 12: unlimited
  | Maximum stacksize for task 13: unlimited
  | Maximum stacksize for task 14: unlimited
  | Maximum stacksize for task 15: unlimited
  | Maximum stacksize for task 16: unlimited
  | Maximum stacksize for task 17: unlimited
  | Maximum stacksize for task 18: unlimited
  | Maximum stacksize for task 19: unlimited
  | Maximum stacksize for task 20: unlimited
  | Maximum stacksize for task 21: unlimited
  | Maximum stacksize for task 22: unlimited
  | Maximum stacksize for task 23: unlimited
  | Maximum stacksize for task 24: unlimited
  | Maximum stacksize for task 25: unlimited
  | Maximum stacksize for task 26: unlimited
  | Maximum stacksize for task 27: unlimited
  | Maximum stacksize for task 28: unlimited
  | Maximum stacksize for task 29: unlimited
  | Maximum stacksize for task 30: unlimited
  | Maximum stacksize for task 31: unlimited
  | Current stacksize for task 0: unlimited
  | Current stacksize for task 1: unlimited
  | Current stacksize for task 2: unlimited
  | Current stacksize for task 3: unlimited
  | Current stacksize for task 4: unlimited
  | Current stacksize for task 5: unlimited
  | Current stacksize for task 6: unlimited
  | Current stacksize for task 7: unlimited
  | Current stacksize for task 8: unlimited
  | Current stacksize for task 9: unlimited
  | Current stacksize for task 10: unlimited
  | Current stacksize for task 11: unlimited
  | Current stacksize for task 12: unlimited
  | Current stacksize for task 13: unlimited
  | Current stacksize for task 14: unlimited
  | Current stacksize for task 15: unlimited
  | Current stacksize for task 16: unlimited
  | Current stacksize for task 17: unlimited
  | Current stacksize for task 18: unlimited
  | Current stacksize for task 19: unlimited
  | Current stacksize for task 20: unlimited
  | Current stacksize for task 21: unlimited
  | Current stacksize for task 22: unlimited
  | Current stacksize for task 23: unlimited
  | Current stacksize for task 24: unlimited
  | Current stacksize for task 25: unlimited
  | Current stacksize for task 26: unlimited
  | Current stacksize for task 27: unlimited
  | Current stacksize for task 28: unlimited
  | Current stacksize for task 29: unlimited
  | Current stacksize for task 30: unlimited
  | Current stacksize for task 31: unlimited
 
  Consistency checks for the contents of control.in are next.
 
  MPI_IN_PLACE appears to work with this MPI implementation.
  | Keeping use_mpi_in_place .true. (see manual).
  Target number of points in a grid batch is not set. Defaulting to  100
  Method for grid partitioning is not set. Defaulting to parallel hash+maxmin partitioning.
  Batch size limit is not set. Defaulting to    200
  By default, will store active basis functions for each batch.
  If in need of memory, prune_basis_once .false. can be used to disable this option.
  communication_type for Hartree potential was not specified.
  Defaulting to calc_hartree .
  Defaulting to Pulay charge density mixer.
  Pulay mixer: Number of relevant iterations not set.
  Defaulting to    8 iterations.
  Pulay mixer: Number of initial linear mixing iterations not set.
  Defaulting to    0 iterations.
  Work space size for distributed Hartree potential not set.
  Defaulting to   0.200000E+03 MB.
  Mixing parameter for charge density mixing has not been set.
  Using default: charge_mix_param =     0.0500.
  The mixing parameter will be adjusted in iteration number     2 of each s.c.f. cycle (i.e., each geometry step).
  Algorithm-dependent basis array size parameters:
  | n_max_pulay                         :        8
  Maximum number of self-consistency iterations not provided.
  Presetting  1000 iterations.
  Presetting      1001 iterations before the initial mixing cycle
  is restarted anyway using the sc_init_iter criterion / keyword.
  Presetting a factor      1.000 between actual scf density residual
  and density convergence criterion sc_accuracy_rho below which sc_init_iter
  takes no effect.
 * No s.c.f. convergence criteria (sc_accuracy_*) were provided in control.in.
 * The run will proceed with a reasonable default guess, but please check whether.
 * the s.c.f. cycles seem to take too much or too little time.
  Calculation of forces was not defined in control.in. No forces will be calculated.
  Geometry relaxation not requested: no relaxation will be performed.
 * Notice: The s.c.f. convergence criterion sc_accuracy_rho was not provided.
 * We used to stop in this case, and ask the user to provide reasonable
 * scf convergence criteria. However, this led some users to employ criteria
 * that led to extremely long run times, e.g., for simple relaxation.
 * We now preset a default value for sc_accuracy_rho if it is not set.
 * You may still wish to check if this setting is too tight or too loose for your needs.
 * Based on n_atoms and forces and force-correction status, FHI-aims chose sc_accuracy_rho =  0.282843E-05 .
  No accuracy limit for integral partition fn. given. Defaulting to  0.1000E-14.
  No threshold value for u(r) in integrations given. Defaulting to  0.1000E-05.
  No occupation type (smearing scheme) given. Defaulting to Gaussian broadening, width =  0.1000E-01 eV.
  The width will be adjusted in iteration number     2 of each s.c.f. cycle (i.e., each geometry step).
  No accuracy for occupation numbers given. Defaulting to  0.1000E-12.
  No threshold value for occupation numbers given. Defaulting to  0.0000E+00.
  No accuracy for fermi level given. Defaulting to  0.1000E-19.
  Maximum # of iterations to find E_F not set. Defaulting to  200.
  Preferred method for the eigenvalue solver ('KS_method') not specified in 'control.in'.
  Defaulting to serial version, LAPACK (via ELSI), since more k-points than CPUs available.
  Will not use alltoall communication since running on < 1024 CPUs.
  Threshold for basis singularities not set.
  Default threshold for basis singularities:  0.1000E-04
  partition_type (choice of integration weights) for integrals was not specified.
  | Using a version of the partition function of Stratmann and coworkers ('stratmann_sparse').
  | At each grid point, the set of atoms used to build the partition table is smoothly restricted to
  | only those atoms whose free-atom density would be non-zero at that grid point.
  Partitioning for Hartree potential was not defined. Using partition_type for integrals.
  | Adjusted default value of keyword multip_moments_threshold to:       0.10000000E-11
  | This value may affect high angular momentum components of the Hartree potential in periodic systems.
  Spin handling was not defined in control.in. Defaulting to unpolarized case.
  No q(lm)/r^(l+1) cutoff set for long-range Hartree potential.
  | Using default value of  0.100000E-09 .
  | Verify using the multipole_threshold keyword.
  Defaulting to new monopole extrapolation.
  Density update method: automatic selection selected.
  Using density matrix based charge density update.
  Using density matrix based charge density update.
  Using packed matrix style: index .
  Defaulting to use time-reversal symmetry for k-point grid.
  Charge integration errors on the 3D integration grid will be compensated
  by explicit normalization and distribution of residual charges.
  Use the "compensate_multipole_errors" flag to change this behaviour.
  Set 'collect_eigenvectors' to be '.true.' for all serial calculations. This is mandatory.
  Set 'collect_eigenvectors' to be '.true.' for KS_method lapack_fast and serial.
  Found potential conflicts with setting 'use_local_index' for this calculation. Will not set it.
 
  Consistency checks for the contents of geometry.in are next.
 

  Range separation radius for Ewald summation (hartree_convergence_parameter):      3.05694433 bohr.
 * Warning: Initial charge and total charge of the system are inconsistent.
 * Selected charge in control.in:     1.0000* Sum of initial charges in geometry.in:     0.0000
  Number of empty states per atom not set in control.in - providing a guess from actual geometry.
  | Total number of empty states used during s.c.f. cycle:      184
  If you use a very high smearing, use empty_states (per atom!) in control.in to increase this value.

  Structure-dependent array size parameters: 
  | Maximum number of distinct radial functions  :       23
  | Maximum number of basis functions            :      944
  | Number of Kohn-Sham states (occupied + empty):      488
------------------------------------------------------------
  After read_input_data [GB]:    406.89

  Performing system and environment tests:
  *** Environment variable OMP_NUM_THREADS is not set
  *** For performance reasons you might want to set it to 1
  | Checking for ScaLAPACK...
  | Testing pdtran()...
  | All pdtran() tests passed.
  After prepare_system [GB]:    406.77

------------------------------------------------------------
          Preparing all fixed parts of the calculation.
------------------------------------------------------------
  Determining machine precision:
    2.225073858507201E-308
  Setting up grids for atomic and cluster calculations.

  Creating wave function, potential, and density for free atoms.
  Runtime choices for atomic solver:
  | atomic solver xc        : PBE
  | compute density gradient: 1
  | compute kinetic density : F

  Species: Ti

  List of occupied orbitals and eigenvalues:
    n    l              occ      energy [Ha]    energy [eV]
    1    0           2.0000      -179.959082     -4896.9358
    2    0           2.0000       -19.727662      -536.8170
    3    0           2.0000        -2.283029       -62.1244
    4    0           2.0000        -0.148384        -4.0377
    2    1           6.0000       -16.317278      -444.0157
    3    1           6.0000        -1.409348       -38.3503
    3    2           2.0000        -0.139340        -3.7916


  Species: O

  List of occupied orbitals and eigenvalues:
    n    l              occ      energy [Ha]    energy [eV]
    1    0           2.0000       -18.926989      -515.0296
    2    0           2.0000        -0.880247       -23.9527
    2    1           4.0000        -0.331514        -9.0210


  Species: F

  List of occupied orbitals and eigenvalues:
    n    l              occ      energy [Ha]    energy [eV]
    1    0           2.0000       -24.399611      -663.9472
    2    0           2.0000        -1.098702       -29.8972
    2    1           5.0000        -0.408210       -11.1080


  Adding cutoff potential to free-atom effective potential.
  Creating fixed part of basis set: Ionic, confined, hydrogenic.
 
  Ti                   ion:

  List of free ionic orbitals and eigenvalues:
    n    l      energy [Ha]    energy [eV]
    1    0      -180.819616     -4920.3521
    2    0       -20.608761      -560.7929
    3    0        -3.115729       -84.7833
    4    0        -0.697188       -18.9715
    2    1       -17.196209      -467.9327
    3    1        -2.231296       -60.7167
    3    2        -0.911363       -24.7995


  List of ionic basis orbitals and eigenvalues:
    n    l      energy [Ha]    energy [eV]    outer radius [A]
    4    1        -0.517739       -14.0884       4.592117
    4    0        -0.696824       -18.9615       4.536321

 
  Ti                   hydrogenic:
 
  List of hydrogenic basis orbitals: 
    n    l      effective z      eigenvalue [eV]  inner max. [A]     outer max. [A]     outer radius [A]   
    4    3         8.000000       -54.4222           1.059019           1.059019           4.267343
    3    2         2.700000       -10.7798           1.726925           1.726925           4.592117
 
 
  O                    hydrogenic:
 
  List of hydrogenic basis orbitals: 
    n    l      effective z      eigenvalue [eV]  inner max. [A]     outer max. [A]     outer radius [A]   
    2    1         1.800000       -10.9749           1.164242           1.164242           4.578029
    3    2         7.600000       -87.3180           0.624125           0.624125           3.251020
    3    0         6.400000       -61.9207           0.061167           1.081902           4.001998
 
 
  F                    hydrogenic:
 
  List of hydrogenic basis orbitals: 
    n    l      effective z      eigenvalue [eV]  inner max. [A]     outer max. [A]     outer radius [A]   
    2    1         1.700000        -9.7616           1.243167           1.243167           4.598524
    3    2         7.400000       -82.7828           0.642437           0.642437           3.305741
    3    0         6.800000       -69.9026           0.057798           1.022307           3.781556
 
  Creating atomic-like basis functions for current effective potential.

  Species Ti                  :

  List of atomic basis orbitals and eigenvalues:
    n    l      energy [Ha]    energy [eV]    outer radius [A]
    1    0      -179.959082     -4896.9358       0.490254
    2    0       -19.727662      -536.8170       1.491292
    3    0        -2.283029       -62.1244       4.014314
    4    0        -0.148384        -4.0377       4.592117
    2    1       -16.317278      -444.0157       1.585290
    3    1        -1.409348       -38.3503       4.267343
    3    2        -0.139340        -3.7916       4.536321


  Species O                   :

  List of atomic basis orbitals and eigenvalues:
    n    l      energy [Ha]    energy [eV]    outer radius [A]
    1    0       -18.926989      -515.0296       1.415765
    2    0        -0.880247       -23.9527       4.413171
    2    1        -0.331514        -9.0210       4.522403


  Species F                   :

  List of atomic basis orbitals and eigenvalues:
    n    l      energy [Ha]    energy [eV]    outer radius [A]
    1    0       -24.399611      -663.9472       1.258458
    2    0        -1.098702       -29.8972       4.325857
    2    1        -0.408210       -11.1080       4.487453

  Assembling full basis from fixed parts.
  | Species Ti :   atomic orbital   1 s accepted.
  | Species Ti :   atomic orbital   2 s accepted.
  | Species Ti :   atomic orbital   3 s accepted.
  | Species Ti :    ionic orbital   4 s accepted.
  | Species Ti :   atomic orbital   4 s accepted.
  | Species Ti :   atomic orbital   2 p accepted.
  | Species Ti :   atomic orbital   3 p accepted.
  | Species Ti :    ionic orbital   4 p accepted.
  | Species Ti :   atomic orbital   3 d accepted.
  | Species Ti :    hydro orbital   3 d accepted.
  | Species Ti :    hydro orbital   4 f accepted.
  | Species O :   atomic orbital   1 s accepted.
  | Species O :    hydro orbital   3 s accepted.
  | Species O :   atomic orbital   2 s accepted.
  | Species O :   atomic orbital   2 p accepted.
  | Species O :    hydro orbital   2 p accepted.
  | Species O :    hydro orbital   3 d accepted.
  | Species F :   atomic orbital   1 s accepted.
  | Species F :    hydro orbital   3 s accepted.
  | Species F :   atomic orbital   2 s accepted.
  | Species F :   atomic orbital   2 p accepted.
  | Species F :    hydro orbital   2 p accepted.
  | Species F :    hydro orbital   3 d accepted.
 
  Basis size parameters after reduction:
  | Total number of radial functions:       23
  | Total number of basis functions :      944
 
  Per-task memory consumption for arrays in subroutine allocate_ext:
  |           6.132552MB.
  Testing on-site integration grid accuracy.
  |  Species  Function  <phi|h_atom|phi> (log., in eV)  <phi|h_atom|phi> (rad., in eV)
           1        1              -4896.9357674450              -4896.9322838106
           1        2               -536.8170048508               -536.8169722776
           1        3                -62.1243896260                -62.1243889401
           1        4                 -3.2653235630                 -3.2692838824
           1        5                  6.7987747276                  6.5460721871 ***
           1        6               -444.0157161949               -444.0157165643
           1        7                -38.3503235548                -38.3503234985
           1        8                  0.2923930877                  0.2745948114
           1        9                 -3.7933400649                 -3.7959244171
           1       10                  6.3288803616                  6.2510614935 ***
           1       11                 27.8451455747                 27.8452636415
           2       12               -515.0295626295               -515.0294562869
           2       13                 15.1698434419                 15.1699322205
           2       14                -21.6038822678                -21.6039118108
           2       15                 -9.0211123393                 -9.0212703513
           2       16                  8.3047696391                  8.2854840999
           2       17                 45.8428042125                 45.8427461223
           3       18               -663.9471986398               -663.9470363156
           3       19                 16.8514011578                 16.8512525340
           3       20                -28.4490593856                -28.4490661455
           3       21                -11.1080115307                -11.1080620174
           3       22                  7.1940182175                  7.1685154136
           3       23                 44.8544281765                 44.8543763625
 * Note: Onsite integrals marked "***" above are less accurate than
 * onsite_accuracy_threshold =    0.03000 eV. Usually, this is harmless.
 * When in doubt, tighten the "radial" and/or "radial_multiplier" flags to check.

  Preparing densities etc. for the partition functions (integrals / Hartree potential).

  Preparations completed.
  max(cpu_time)          :      0.595 s.
  Wall clock time (cpu1) :      0.591 s.
------------------------------------------------------------
  After prepare_scf [GB]:    405.16

  Initializing index lists of integration centers etc. from given atomic structure:
  Mapping all atomic coordinates to central unit cell.

  Initializing the k-points
  Using symmetry for reducing the k-points
  | k-points reduced from:      200 to      101
  | Number of k-points                             :       101
  The eigenvectors in the calculations are COMPLEX.
  | K-points in task   0:         3
  | K-points in task   1:         4
  | K-points in task   2:         4
  | K-points in task   3:         4
  | K-points in task   4:         4
  | K-points in task   5:         4
  | K-points in task   6:         3
  | K-points in task   7:         3
  | K-points in task   8:         3
  | K-points in task   9:         3
  | K-points in task  10:         3
  | K-points in task  11:         3
  | K-points in task  12:         3
  | K-points in task  13:         3
  | K-points in task  14:         3
  | K-points in task  15:         3
  | K-points in task  16:         3
  | K-points in task  17:         3
  | K-points in task  18:         3
  | K-points in task  19:         3
  | K-points in task  20:         3
  | K-points in task  21:         3
  | K-points in task  22:         3
  | K-points in task  23:         3
  | K-points in task  24:         3
  | K-points in task  25:         3
  | K-points in task  26:         3
  | K-points in task  27:         3
  | K-points in task  28:         3
  | K-points in task  29:         3
  | K-points in task  30:         3
  | K-points in task  31:         3
  | Number of basis functions in the Hamiltonian integrals :      7297
  | Number of basis functions in a single unit cell        :       944
  | Number of centers in hartree potential         :      2123
  | Number of centers in hartree multipole         :      1437
  | Number of centers in electron density summation:      1110
  | Number of centers in basis integrals           :      1188
  | Number of centers in integrals                 :       481
  | Number of centers in hamiltonian               :      1133
  | Consuming         72 KiB for k_phase.
  | Number of super-cells (origin) [n_cells]                     :         175
  | Number of super-cells (after PM_index) [n_cells]             :          46
  | Number of super-cells in hamiltonian [n_cells_in_hamiltonian]:          46
  | Size of matrix packed + index [n_hamiltonian_matrix_size] :     2120735
  After initialize_bc_dependent_lists [GB]:    405.09

------------------------------------------------------------
          Begin self-consistency loop: Initialization.

          Date     :  20250120, Time     :  140852.870
------------------------------------------------------------
  Available memory per node after initialize_hartree_non_periodic_ewald [GB]:    405.09
  | Estimated reciprocal-space cutoff momentum G_max:         3.08892848 bohr^-1 .
  | Reciprocal lattice points for long-range Hartree potential:    1722
  Available memory per node after initialize_recip_hartree_potential [GB]:    405.09
  Available memory per node after initialize_scalapack [GB]:    405.09
  Available memory per node after aims_elsi_init_scf [GB]:    405.09
  Available memory per node after initialize_fixed_grids [GB]:    405.09
  Partitioning the integration grid into batches with parallel hashing+maxmin method.
  | Number of batches:     4096
  | Maximal batch size:      83
  | Minimal batch size:      72
  | Average batch size:      75.165
  | Standard deviation of batch sizes:       1.970

  Integration load balanced across    32 MPI tasks.
  Work distribution over tasks is as follows:
  Task     0 has       9654 integration points.
  Task     1 has       9641 integration points.
  Task     2 has       9641 integration points.
  Task     3 has       9604 integration points.
  Task     4 has       9606 integration points.
  Task     5 has       9642 integration points.
  Task     6 has       9604 integration points.
  Task     7 has       9619 integration points.
  Task     8 has       9582 integration points.
  Task     9 has       9622 integration points.
  Task    10 has       9581 integration points.
  Task    11 has       9620 integration points.
  Task    12 has       9619 integration points.
  Task    13 has       9581 integration points.
  Task    14 has       9617 integration points.
  Task    15 has       9657 integration points.
  Task    16 has       9636 integration points.
  Task    17 has       9603 integration points.
  Task    18 has       9638 integration points.
  Task    19 has       9619 integration points.
  Task    20 has       9632 integration points.
  Task    21 has       9635 integration points.
  Task    22 has       9622 integration points.
  Task    23 has       9607 integration points.
  Task    24 has       9600 integration points.
  Task    25 has       9633 integration points.
  Task    26 has       9600 integration points.
  Task    27 has       9618 integration points.
  Task    28 has       9636 integration points.
  Task    29 has       9644 integration points.
  Task    30 has       9607 integration points.
  Task    31 has       9654 integration points.
  Available memory per node after partition_grid [GB]:    405.09
  Initializing partition tables, free-atom densities, potentials, etc. across the integration grid (initialize_grid_storage).
  | initialize_grid_storage: Actual outermost partition radius vs. multipole_radius_free
  | (-- VB: in principle, multipole_radius_free should be larger, hence this output)
  | Species        1: Confinement radius =              4.999999999999999 AA, multipole_radius_free =              5.002391649902235 AA.
  | Species        1: outer_partition_radius set to              5.002391649902235 AA .
  | Species        2: Confinement radius =              4.999999999999999 AA, multipole_radius_free =              5.048384829883283 AA.
  | Species        2: outer_partition_radius set to              5.048384829883283 AA .
  | Species        3: Confinement radius =              4.999999999999999 AA, multipole_radius_free =              5.009370088163274 AA.
  | Species        3: outer_partition_radius set to              5.009370088163274 AA .
  | The sparse table of interatomic distances needs       3496.88 kbyte instead of     11290.75 kbyte of memory.
  | Net number of integration points:   307874
  | of which are non-zero points    :   253362
  | Numerical average free-atom electrostatic potential    :    -17.68823405 eV
  Available memory per node after initialize_grid_storage_p1 [GB]:    405.11
  Renormalizing the initial density to the exact electron count on the 3D integration grid.
  | Initial density: Formal number of electrons (from input files) :     609.0000000000
  | Integrated number of electrons on 3D grid     :     609.0049371722
  | Charge integration error                      :       0.0049371722
  | Normalization factor for density and gradient :       0.9999918931
  Renormalizing the free-atom superposition density to the exact electron count on the 3D integration grid.
  | Formal number of electrons (from input files) :     608.0000000000
  | Integrated number of electrons on 3D grid     :     609.0049371722
  | Charge integration error                      :       0.0049371722
  | Normalization factor for density and gradient :       0.9999918931
  Obtaining max. number of non-zero basis functions in each batch (get_n_compute_maxes).
  | Maximal number of non-zero basis functions:      805 in task     0
  | Maximal number of non-zero basis functions:      828 in task     1
  | Maximal number of non-zero basis functions:      857 in task     2
  | Maximal number of non-zero basis functions:      854 in task     3
  | Maximal number of non-zero basis functions:      857 in task     4
  | Maximal number of non-zero basis functions:      833 in task     5
  | Maximal number of non-zero basis functions:      827 in task     6
  | Maximal number of non-zero basis functions:      857 in task     7
  | Maximal number of non-zero basis functions:      810 in task     8
  | Maximal number of non-zero basis functions:      857 in task     9
  | Maximal number of non-zero basis functions:      818 in task    10
  | Maximal number of non-zero basis functions:      857 in task    11
  | Maximal number of non-zero basis functions:      857 in task    12
  | Maximal number of non-zero basis functions:      802 in task    13
  | Maximal number of non-zero basis functions:      811 in task    14
  | Maximal number of non-zero basis functions:      822 in task    15
  | Maximal number of non-zero basis functions:      857 in task    16
  | Maximal number of non-zero basis functions:      832 in task    17
  | Maximal number of non-zero basis functions:      833 in task    18
  | Maximal number of non-zero basis functions:      825 in task    19
  | Maximal number of non-zero basis functions:      869 in task    20
  | Maximal number of non-zero basis functions:      826 in task    21
  | Maximal number of non-zero basis functions:      857 in task    22
  | Maximal number of non-zero basis functions:      832 in task    23
  | Maximal number of non-zero basis functions:      830 in task    24
  | Maximal number of non-zero basis functions:      831 in task    25
  | Maximal number of non-zero basis functions:      827 in task    26
  | Maximal number of non-zero basis functions:      857 in task    27
  | Maximal number of non-zero basis functions:      824 in task    28
  | Maximal number of non-zero basis functions:      833 in task    29
  | Maximal number of non-zero basis functions:      847 in task    30
  | Maximal number of non-zero basis functions:      817 in task    31
  Available memory per node after get_n_compute_maxes_p1 [GB]:    405.12
  Allocating       21.088 MB for KS_eigenvector_complex
  Available memory per node after allocate_matrices [GB]:    404.86
  Available memory per node after init_comm_sparse_local_matrix_scalapack [GB]:    404.80
  Integrating Hamiltonian matrix: batch-based integration.
  Time summed over all CPUs for integration: real work      113.923 s, elapsed      334.627 s => Consider using load balancing!
  Available memory per node after integrate hamiltonian matrix [GB]:    404.43
  Integrating overlap matrix.
  Time summed over all CPUs for integration: real work       42.012 s, elapsed      106.872 s
  Available memory per node after integrate ovlp matrix [GB]:    410.37
  Available memory per node after ASI_callbacks invoke [GB]:    410.37
  Available memory per node after save_overlap_scalapack [GB]:    410.37

  Updating Kohn-Sham eigenvalues and eigenvectors using ELSI and the (modified) LAPACK eigensolver.
  Singularity check in k-point 32, task 0 (analysis for other k-points/tasks may follow below):
  Overlap matrix is not singular
  | Lowest and highest eigenvalues :  0.5873E-03,  0.7945E+01
  Finished singularity check of overlap matrix
  | Time :     0.518 s
  Starting LAPACK eigensolver
  Finished Cholesky decomposition
  | Time :     0.088 s
  Finished transformation to standard eigenproblem
  | Time :     0.138 s
  Finished solving standard eigenproblem
  | Time :     0.602 s
  Finished back-transformation of eigenvectors
  | Time :     0.052 s

  Obtaining occupation numbers and electronic chemical potential using ELSI.
  | Note that, for insulating systems, the printed 'chemical potential' value is not uniquely defined.
  | It can be anywhere in the energy gap, as long as it correctly separates occupied and unoccupied states.
  | In systems with a gap, the physically relevant chemical potential is the VBM or HOMO.

  | Chemical potential (Fermi level):    -5.31774572 eV
  Available memory per node after advance_KS_solution [GB]:    409.59
  Writing Kohn-Sham eigenvalues.
  K-point:       1 at    0.000000    0.000000    0.000000 (in units of recip. lattice)

  State    Occupation    Eigenvalue [Ha]    Eigenvalue [eV]
      1       2.00000        -179.962391        -4897.02582
      2       2.00000        -179.962391        -4897.02582
      3       2.00000        -179.962391        -4897.02581
      4       2.00000        -179.962390        -4897.02580
      5       2.00000        -179.962390        -4897.02579
      6       2.00000        -179.962390        -4897.02579
      7       2.00000        -179.962390        -4897.02579
      8       2.00000        -179.962390        -4897.02579
      9       2.00000        -179.962390        -4897.02579
     10       2.00000        -179.962390        -4897.02579
     11       2.00000        -179.962390        -4897.02578
     12       2.00000        -179.962390        -4897.02578
     13       2.00000        -179.962390        -4897.02578
     14       2.00000        -179.961845        -4897.01097
     15       2.00000        -179.961739        -4897.00809
     16       2.00000        -179.961739        -4897.00809
     17       2.00000         -24.506677         -666.86062
     18       2.00000         -19.737973         -537.09757
     19       2.00000         -19.737973         -537.09757
     20       2.00000         -19.737973         -537.09757
     21       2.00000         -19.737972         -537.09755
     22       2.00000         -19.737972         -537.09754
     23       2.00000         -19.737972         -537.09754
     24       2.00000         -19.737972         -537.09754
     25       2.00000         -19.737972         -537.09754
     26       2.00000         -19.737972         -537.09754
     27       2.00000         -19.737972         -537.09754
     28       2.00000         -19.737971         -537.09753
     29       2.00000         -19.737971         -537.09753
     30       2.00000         -19.737971         -537.09753
     31       2.00000         -19.737390         -537.08171
     32       2.00000         -19.737277         -537.07864
     33       2.00000         -19.737277         -537.07864
     34       2.00000         -19.034687         -517.96018
     35       2.00000         -19.034674         -517.95983
     36       2.00000         -19.034667         -517.95963
     37       2.00000         -19.034665         -517.95960
     38       2.00000         -19.034658         -517.95941
     39       2.00000         -19.034658         -517.95939
     40       2.00000         -19.034658         -517.95938
     41       2.00000         -19.034656         -517.95935
     42       2.00000         -19.034656         -517.95935
     43       2.00000         -19.034656         -517.95933
     44       2.00000         -19.034656         -517.95933
     45       2.00000         -19.034653         -517.95927
     46       2.00000         -19.034653         -517.95927
     47       2.00000         -19.034653         -517.95926
     48       2.00000         -19.034653         -517.95926
     49       2.00000         -19.034652         -517.95922
     50       2.00000         -19.034652         -517.95922
     51       2.00000         -19.034652         -517.95922
     52       2.00000         -19.034651         -517.95922
     53       2.00000         -19.034650         -517.95919
     54       2.00000         -19.034646         -517.95908
     55       2.00000         -19.034638         -517.95886
     56       2.00000         -19.034636         -517.95880
     57       2.00000         -19.034635         -517.95877
     58       2.00000         -19.034633         -517.95872
     59       2.00000         -19.034632         -517.95870
     60       2.00000         -19.034629         -517.95862
     61       2.00000         -19.034622         -517.95842
     62       2.00000         -19.034615         -517.95822
     63       2.00000         -19.034602         -517.95787
     64       2.00000         -19.034587         -517.95748
     65       2.00000         -16.328141         -444.31132
     66       2.00000         -16.328141         -444.31132
     67       2.00000         -16.328141         -444.31131
     68       2.00000         -16.328140         -444.31129
     69       2.00000         -16.328140         -444.31129
     70       2.00000         -16.328140         -444.31129
     71       2.00000         -16.328140         -444.31129
     72       2.00000         -16.328140         -444.31129
     73       2.00000         -16.328140         -444.31129
     74       2.00000         -16.328140         -444.31128
     75       2.00000         -16.328139         -444.31128
     76       2.00000         -16.328139         -444.31128
     77       2.00000         -16.328139         -444.31127
     78       2.00000         -16.327828         -444.30280
     79       2.00000         -16.327828         -444.30280
     80       2.00000         -16.327828         -444.30280
     81       2.00000         -16.327827         -444.30278
     82       2.00000         -16.327827         -444.30278
     83       2.00000         -16.327827         -444.30278
     84       2.00000         -16.327827         -444.30278
     85       2.00000         -16.327827         -444.30278
     86       2.00000         -16.327827         -444.30277
     87       2.00000         -16.327827         -444.30277
     88       2.00000         -16.327826         -444.30276
     89       2.00000         -16.327826         -444.30276
     90       2.00000         -16.327826         -444.30276
     91       2.00000         -16.327817         -444.30250
     92       2.00000         -16.327817         -444.30249
     93       2.00000         -16.327816         -444.30249
     94       2.00000         -16.327816         -444.30247
     95       2.00000         -16.327816         -444.30247
     96       2.00000         -16.327816         -444.30247
     97       2.00000         -16.327816         -444.30247
     98       2.00000         -16.327816         -444.30247
     99       2.00000         -16.327816         -444.30247
    100       2.00000         -16.327815         -444.30246
    101       2.00000         -16.327815         -444.30245
    102       2.00000         -16.327815         -444.30245
    103       2.00000         -16.327815         -444.30245
    104       2.00000         -16.327583         -444.29614
    105       2.00000         -16.327441         -444.29229
    106       2.00000         -16.327441         -444.29228
    107       2.00000         -16.327270         -444.28762
    108       2.00000         -16.327205         -444.28585
    109       2.00000         -16.327151         -444.28438
    110       2.00000         -16.327151         -444.28438
    111       2.00000         -16.327132         -444.28385
    112       2.00000         -16.327131         -444.28385
    113       2.00000          -2.309679          -62.84955
    114       2.00000          -2.309366          -62.84105
    115       2.00000          -2.309364          -62.84100
    116       2.00000          -2.309364          -62.84099
    117       2.00000          -2.309362          -62.84093
    118       2.00000          -2.309149          -62.83513
    119       2.00000          -2.308912          -62.82869
    120       2.00000          -2.308074          -62.80588
    121       2.00000          -2.307581          -62.79248
    122       2.00000          -2.307581          -62.79247
    123       2.00000          -2.307580          -62.79245
    124       2.00000          -2.307580          -62.79244
    125       2.00000          -2.307579          -62.79241
    126       2.00000          -2.307578          -62.79239
    127       2.00000          -2.306900          -62.77395
    128       2.00000          -2.306315          -62.75802
    129       2.00000          -1.465575          -39.88033
    130       2.00000          -1.465052          -39.86609
    131       2.00000          -1.465038          -39.86570
    132       2.00000          -1.464914          -39.86233
    133       2.00000          -1.464534          -39.85200
    134       2.00000          -1.464396          -39.84825
    135       2.00000          -1.464385          -39.84795
    136       2.00000          -1.464144          -39.84137
    137       2.00000          -1.450792          -39.47805
    138       2.00000          -1.450374          -39.46668
    139       2.00000          -1.450026          -39.45721
    140       2.00000          -1.449750          -39.44970
    141       2.00000          -1.447102          -39.37765
    142       2.00000          -1.446959          -39.37377
    143       2.00000          -1.446951          -39.37353
    144       2.00000          -1.446768          -39.36857
    145       2.00000          -1.443192          -39.27126
    146       2.00000          -1.443188          -39.27115
    147       2.00000          -1.443040          -39.26712
    148       2.00000          -1.442759          -39.25947
    149       2.00000          -1.442084          -39.24111
    150       2.00000          -1.441574          -39.22722
    151       2.00000          -1.441557          -39.22677
    152       2.00000          -1.441418          -39.22299
    153       2.00000          -1.441410          -39.22276
    154       2.00000          -1.441408          -39.22272
    155       2.00000          -1.441408          -39.22270
    156       2.00000          -1.441407          -39.22268
    157       2.00000          -1.441281          -39.21924
    158       2.00000          -1.441130          -39.21514
    159       2.00000          -1.440776          -39.20550
    160       2.00000          -1.440758          -39.20503
    161       2.00000          -1.440702          -39.20350
    162       2.00000          -1.440499          -39.19798
    163       2.00000          -1.440143          -39.18828
    164       2.00000          -1.440049          -39.18573
    165       2.00000          -1.440048          -39.18571
    166       2.00000          -1.439981          -39.18387
    167       2.00000          -1.439980          -39.18385
    168       2.00000          -1.439952          -39.18308
    169       2.00000          -1.439916          -39.18211
    170       2.00000          -1.439873          -39.18095
    171       2.00000          -1.439823          -39.17957
    172       2.00000          -1.439732          -39.17709
    173       2.00000          -1.439503          -39.17088
    174       2.00000          -1.439251          -39.16400
    175       2.00000          -1.438653          -39.14775
    176       2.00000          -1.438014          -39.13035
    177       2.00000          -1.230681          -33.48852
    178       2.00000          -1.066451          -29.01960
    179       2.00000          -1.048800          -28.53930
    180       2.00000          -1.047808          -28.51231
    181       2.00000          -1.044100          -28.41141
    182       2.00000          -1.044067          -28.41051
    183       2.00000          -1.044048          -28.40999
    184       2.00000          -1.041194          -28.33234
    185       2.00000          -1.036385          -28.20147
    186       2.00000          -1.036348          -28.20046
    187       2.00000          -1.036346          -28.20042
    188       2.00000          -1.034806          -28.15851
    189       2.00000          -1.031542          -28.06967
    190       2.00000          -1.028197          -27.97866
    191       2.00000          -1.027124          -27.94948
    192       2.00000          -1.025961          -27.91782
    193       2.00000          -1.022242          -27.81661
    194       2.00000          -1.017582          -27.68982
    195       2.00000          -1.016707          -27.66601
    196       2.00000          -1.014590          -27.60839
    197       2.00000          -1.014337          -27.60152
    198       2.00000          -1.013919          -27.59014
    199       2.00000          -1.013889          -27.58934
    200       2.00000          -1.013872          -27.58887
    201       2.00000          -1.010167          -27.48803
    202       2.00000          -1.008219          -27.43504
    203       2.00000          -1.007540          -27.41655
    204       2.00000          -1.006557          -27.38980
    205       2.00000          -1.006519          -27.38879
    206       2.00000          -1.006513          -27.38861
    207       2.00000          -1.005574          -27.36306
    208       2.00000          -1.005261          -27.35454
    209       2.00000          -0.597385          -16.25568
    210       2.00000          -0.581486          -15.82304
    211       2.00000          -0.579472          -15.76825
    212       2.00000          -0.574004          -15.61944
    213       2.00000          -0.568437          -15.46795
    214       2.00000          -0.564865          -15.37077
    215       2.00000          -0.561065          -15.26735
    216       2.00000          -0.556209          -15.13521
    217       2.00000          -0.556188          -15.13465
    218       2.00000          -0.555856          -15.12562
    219       2.00000          -0.555685          -15.12096
    220       2.00000          -0.555634          -15.11956
    221       2.00000          -0.551663          -15.01151
    222       2.00000          -0.550707          -14.98551
    223       2.00000          -0.550230          -14.97253
    224       2.00000          -0.546313          -14.86592
    225       2.00000          -0.545150          -14.83428
    226       2.00000          -0.541094          -14.72392
    227       2.00000          -0.540781          -14.71540
    228       2.00000          -0.534017          -14.53135
    229       2.00000          -0.532344          -14.48582
    230       2.00000          -0.526510          -14.32706
    231       2.00000          -0.522120          -14.20762
    232       2.00000          -0.522082          -14.20657
    233       2.00000          -0.520428          -14.16157
    234       2.00000          -0.520298          -14.15802
    235       2.00000          -0.520221          -14.15594
    236       2.00000          -0.516461          -14.05362
    237       2.00000          -0.515971          -14.04028
    238       2.00000          -0.514561          -14.00192
    239       2.00000          -0.514391          -13.99728
    240       2.00000          -0.514323          -13.99545
    241       2.00000          -0.513753          -13.97994
    242       2.00000          -0.513716          -13.97893
    243       2.00000          -0.513681          -13.97798
    244       2.00000          -0.512432          -13.94400
    245       2.00000          -0.510966          -13.90408
    246       2.00000          -0.510623          -13.89476
    247       2.00000          -0.510072          -13.87977
    248       2.00000          -0.509756          -13.87117
[...]
    423       0.00000           0.300886            8.18752
    424       0.00000           0.302692            8.23666
    425       0.00000           0.304645            8.28982
    426       0.00000           0.306441            8.33868
    427       0.00000           0.309715            8.42776
    428       0.00000           0.322262            8.76919
    429       0.00000           0.326156            8.87516
    430       0.00000           0.326697            8.88987
    431       0.00000           0.329971            8.97896
    432       0.00000           0.331236            9.01339
    433       0.00000           0.332644            9.05170
    434       0.00000           0.334229            9.09484
    435       0.00000           0.335788            9.13725
    436       0.00000           0.336790            9.16453
    437       0.00000           0.339875            9.24846
    438       0.00000           0.341477            9.29207
    439       0.00000           0.345825            9.41038
    440       0.00000           0.353938            9.63114
    441       0.00000           0.354000            9.63282
    442       0.00000           0.359156            9.77314
    443       0.00000           0.360383            9.80651
    444       0.00000           0.362864            9.87403
    445       0.00000           0.363732            9.89765
    446       0.00000           0.367099            9.98927
    447       0.00000           0.367361            9.99639
    448       0.00000           0.371121           10.09873
    449       0.00000           0.371512           10.10936
    450       0.00000           0.373660           10.16782
    451       0.00000           0.374103           10.17986
    452       0.00000           0.374333           10.18611
    453       0.00000           0.374947           10.20283
    454       0.00000           0.376005           10.23161
    455       0.00000           0.380003           10.34040
    456       0.00000           0.397126           10.80633
    457       0.00000           0.398679           10.84860
    458       0.00000           0.434756           11.83032
    459       0.00000           0.436548           11.87907
    460       0.00000           0.437591           11.90747
    461       0.00000           0.437622           11.90830
    462       0.00000           0.449541           12.23262
    463       0.00000           0.453659           12.34469
    464       0.00000           0.466146           12.68448
    465       0.00000           0.466257           12.68749
    466       0.00000           0.467912           12.73254
    467       0.00000           0.469311           12.77061
    468       0.00000           0.470080           12.79152
    469       0.00000           0.470119           12.79259
    470       0.00000           0.471282           12.82422
    471       0.00000           0.511896           13.92940
    472       0.00000           0.516414           14.05234
    473       0.00000           0.517314           14.07682
    474       0.00000           0.518204           14.10105
    475       0.00000           0.528982           14.39433
    476       0.00000           0.529814           14.41699
    477       0.00000           0.530073           14.42403
    478       0.00000           0.538247           14.64645
    479       0.00000           0.548502           14.92550
    480       0.00000           0.550261           14.97337
    481       0.00000           0.550506           14.98002
    482       0.00000           0.551925           15.01864
    483       0.00000           0.601364           16.36395
    484       0.00000           0.628920           17.11378
    485       0.00000           0.629477           17.12895
    486       0.00000           0.643743           17.51715
    487       0.00000           0.644947           17.54990
    488       0.00000           0.646931           17.60389

  What follows are estimated values for band gap, HOMO, LUMO, etc.
  | They are estimated on a discrete k-point grid and not necessarily exact.
  | For converged numbers, create a DOS and/or band structure plot on a denser k-grid.

  Highest occupied state (VBM) at     -8.66182281 eV (relative to internal zero)
  | Occupation number:      2.00000000
  | K-point:       1 at    0.000000    0.000000    0.000000 (in units of recip. lattice)

  Lowest unoccupied state (CBM) at    -7.27919025 eV (relative to internal zero)
  | Occupation number:      0.00000005
  | K-point:       1 at    0.000000    0.000000    0.000000 (in units of recip. lattice)

  ESTIMATED overall HOMO-LUMO gap:      1.38263256 eV between HOMO at k-point 1 and LUMO at k-point 1
  | This appears to be a direct band gap.
  The gap value is above 0.2 eV. Unless you are using a very sparse k-point grid,
  this system is most likely an insulator or a semiconductor.

  Total energy components:
  | Sum of eigenvalues            :       -9528.34568286 Ha     -259279.47802513 eV
  | XC energy correction          :        -950.34121753 Ha      -25860.10027640 eV
  | XC potential correction       :        1228.73227449 Ha       33435.50636873 eV
  | Free-atom electrostatic energy:       -6854.67407335 Ha     -186525.17183205 eV
  | Hartree energy correction     :           8.49321050 Ha         231.11201664 eV
  | Entropy correction            :          -0.00000000 Ha          -0.00000000 eV
  | ---------------------------
  | Total energy                  :      -16096.13548874 Ha     -437998.13174821 eV
  | Total energy, T -> 0          :      -16096.13548874 Ha     -437998.13174821 eV  <-- do not rely on this value for anything but (periodic) metals
  | Electronic free energy        :      -16096.13548874 Ha     -437998.13174821 eV

  Derived energy quantities:
  | Kinetic energy                :       16284.55046744 Ha      443125.16417920 eV
  | Electrostatic energy          :      -31430.34473865 Ha     -855263.19565101 eV
  | Energy correction for multipole
  | error in Hartree potential    :           0.16630254 Ha           4.52532224 eV
  | Sum of eigenvalues per atom                           :       -5401.65579219 eV
  | Total energy (T->0) per atom                          :       -9124.96107809 eV  <-- do not rely on this value for anything but (periodic) metals
  | Electronic free energy per atom                       :       -9124.96107809 eV
  End evaluation of scaled ZORA corrections.
  | Time for scaled ZORA corrections            :       15.828 s          15.833 s
------------------------------------------------------------

  Energy and forces in a compact form:
  | Total energy uncorrected      :         -0.437998131748209E+06 eV
  | Total energy corrected        :         -0.437998131748209E+06 eV  <-- do not rely on this value for anything but (periodic) metals
  | Electronic free energy        :         -0.437998131748209E+06 eV

  ------------------------------------ 
  Start decomposition of the XC Energy 
  ------------------------------------ 
  X and C from original XC functional choice 
  Hartree-Fock Energy :          0.000000000 Ha              0.000000000 eV
  X Energy            :       -926.274306492 Ha         -25205.206306425 eV
  C Energy            :        -24.066911038 Ha           -654.893969973 eV
  XC Energy w/o HF    :       -950.341217530 Ha         -25860.100276397 eV
  Total XC Energy     :       -950.341217530 Ha         -25860.100276397 eV
  ------------------------------------ 
  LDA X and C from self-consistent density 
  X Energy LDA        :       -859.831301411 Ha         -23397.200147835 eV
  C Energy LDA        :        -47.000504583 Ha          -1278.948801906 eV
  ------------------------------------ 
  End decomposition of the XC Energy 
  ------------------------------------ 

------------------------------------------------------------

  ------------------------------------------------------------
                   Starting Mulliken Analysis
  ------------------------------------------------------------

  Performing Mulliken charge analysis on all atoms.
  Full analysis will be written to separate file 'Mulliken.out'.
  Summary of the per-atom charge analysis:
  |
  |  atom       electrons          charge             l=0             l=1             l=2             l=3
  |     1       20.726858        1.273142        5.966896       12.485453        2.133609        0.140900
  |     2       20.716689        1.283311        5.966000       12.490452        2.119013        0.141224
  |     3        9.438489       -0.438489        3.932980        5.493830        0.011679
  |     4        8.603553       -0.603553        3.849524        4.744019        0.010010
  |     5        8.620603       -0.620603        3.847357        4.763572        0.009674
  |     6        8.620585       -0.620585        3.847351        4.763558        0.009676
  |     7       20.724906        1.275094        5.960005       12.503844        2.116498        0.144560
  |     8       20.716673        1.283327        5.965993       12.490484        2.118958        0.141239
  |     9        8.604618       -0.604618        3.847272        4.747251        0.010094
  |    10        8.582806       -0.582806        3.850088        4.722699        0.010019
  |    11        8.620619       -0.620619        3.847357        4.763590        0.009672
  |    12        8.620633       -0.620633        3.847360        4.763603        0.009671
  |    13       20.731576        1.268424        5.961715       12.507097        2.118641        0.144122
  |    14       20.723090        1.276910        5.960913       12.504740        2.113433        0.144005
  |    15        8.613568       -0.613568        3.848180        4.755625        0.009762
  |    16        8.619477       -0.619477        3.847481        4.762211        0.009785
  |    17        8.616486       -0.616486        3.848643        4.757887        0.009957
  |    18        8.612546       -0.612546        3.848385        4.754367        0.009794
  |    19       20.718843        1.281157        5.959762       12.504833        2.110282        0.143966
  |    20       20.723060        1.276940        5.960932       12.504730        2.113405        0.143994
  |    21        8.614804       -0.614804        3.848309        4.756762        0.009733
  |    22        8.613482       -0.613482        3.848124        4.755579        0.009780
  |    23        8.616457       -0.616457        3.848647        4.757852        0.009958
  |    24        8.612548       -0.612548        3.848390        4.754365        0.009793
  |    25       20.731575        1.268425        5.961715       12.507097        2.118640        0.144122
  |    26       20.723097        1.276903        5.960910       12.504741        2.113439        0.144007
  |    27        8.613573       -0.613573        3.848181        4.755630        0.009762
  |    28        8.619484       -0.619484        3.847481        4.762218        0.009785
  |    29        8.612543       -0.612543        3.848381        4.754367        0.009795
  |    30        8.616489       -0.616489        3.848641        4.757891        0.009957
  |    31       20.718843        1.281157        5.959762       12.504833        2.110282        0.143966
  |    32       20.723067        1.276933        5.960929       12.504731        2.113411        0.143996
  |    33        8.614809       -0.614809        3.848309        4.756767        0.009733
  |    34        8.613488       -0.613488        3.848124        4.755584        0.009780
  |    35        8.612545       -0.612545        3.848385        4.754366        0.009794
  |    36        8.616460       -0.616460        3.848645        4.757858        0.009958
  |    37       20.725269        1.274731        5.959968       12.505205        2.116014        0.144082
  |    38       20.723141        1.276859        5.960511       12.506464        2.112048        0.144119
  |    39        8.610289       -0.610289        3.848399        4.752167        0.009723
  |    40        8.605938       -0.605938        3.847505        4.748739        0.009694
  |    41        8.608892       -0.608892        3.848575        4.750536        0.009781
  |    42        8.608911       -0.608911        3.848578        4.750554        0.009779
  |    43       20.724663        1.275337        5.960039       12.505287        2.115393        0.143943
  |    44       20.723146        1.276854        5.960498       12.506466        2.112053        0.144130
  |    45        8.609492       -0.609492        3.848392        4.751348        0.009751
  |    46        8.613442       -0.613442        3.848325        4.755429        0.009688
  |    47        8.608951       -0.608951        3.848583        4.750592        0.009776
  |    48        8.608926       -0.608926        3.848579        4.750570        0.009778
  |
  | Total      608.000000        1.000000
 
  Writing Mulliken decomposition to disk ...

  Mulliken analysis                                       :  max(cpu_time)    wall_clock(cpu1)
  | Time for Mulliken analysis                            :         34.382              34.397
  | Total time for Mulliken analysis                      :         34.382              34.397
------------------------------------------------------------

------------------------------------------------------------------------------
  Final output of selected total energy values:

  The following output summarizes some interesting total energy values
  at the end of a run (AFTER all relaxation, molecular dynamics, etc.).

  | Total energy of the DFT / Hartree-Fock s.c.f. calculation      :        -437998.131748209 eV
  | Final zero-broadening corrected energy (caution - metals only) :        -437998.131748209 eV
  | For reference only, the value of 1 Hartree used in FHI-aims is :             27.211384500 eV
  | For reference only, the overall average (free atom contribution
  | + realspace contribution) of the electrostatic potential after
  | s.c.f. convergence is                                          :            -17.177307057 eV

  Before relying on these values, please be sure to understand exactly which
  total energy value is referred to by a given number. Different objects may
  all carry the same name 'total energy'. Definitions:

  Total energy of the DFT / Hartree-Fock s.c.f. calculation:
  | Note that this energy does not include ANY quantities calculated after the
  | s.c.f. cycle, in particular not ANY RPA, MP2, etc. many-body perturbation terms.
  | Scalar relativistic effects have been included in the 'scaled ZORA' approximation.

  Final zero-broadening corrected energy:
  | For metallic systems only, a broadening of the occupation numbers at the Fermi
  | level can be extrapolated back to zero broadening by an electron-gas inspired
  | formula. For all systems that are not real metals, this value can be
  | meaningless and should be avoided.

------------------------------------------------------------------------------
  Methods described in the following list of references were used in this FHI-aims run.
  If you publish the results, please make sure to cite these reference if they apply.
  FHI-aims is an academic code, and for our developers (often, Ph.D. students
  and postdocs), scientific credit in the community is essential.
  Thank you for helping us!

  For any use of FHI-aims, please cite:

    Volker Blum, Ralf Gehrke, Felix Hanke, Paula Havu, Ville Havu,
    Xinguo Ren, Karsten Reuter, and Matthias Scheffler
    'Ab initio molecular simulations with numeric atom-centered orbitals'
    Computer Physics Communications 180, 2175-2196 (2009)
    http://doi.org/10.1016/j.cpc.2009.06.022


  The provided symmetry information was generated with SPGlib:

    Atsushi Togo, Yusuke Seto, Dimitar Pashov
    SPGlib 1.7.3 obtained from http://spglib.sourceforge.net
    Licence: New BSD license
    Copyright (C) 2008 Atsushi Togo


  The ELSI infrastructure was used in your run to solve the Kohn-Sham electronic structure.
  Please check out https://wordpress.elsi-interchange.org to learn more.
  If scalability is important for your project, please acknowledge ELSI by citing:

    V. W-z. Yu, F. Corsetti, A. Garcia, W. P. Huhn, M. Jacquelin, W. Jia,
    B. Lange, L. Lin, J. Lu, W. Mi, A. Seifitokaldani, A. Vazquez-Mayagoitia,
    C. Yang, H. Yang, and V. Blum
    'ELSI: A unified software interface for Kohn-Sham electronic structure solvers'
    Computer Physics Communications 222, 267-285 (2018).
    http://doi.org/10.1016/j.cpc.2017.09.007


  For the real-space grid partitioning and parallelization used in this calculation, please cite:

    Ville Havu, Volker Blum, Paula Havu, and Matthias Scheffler,
    'Efficient O(N) integration for all-electron electronic structure calculation'
    'using numerically tabulated basis functions'
    Journal of Computational Physics 228, 8367-8379 (2009).
    http://doi.org/10.1016/j.jcp.2009.08.008

  Of course, there are many other important community references, e.g., those cited in the
  above references. Our list is limited to references that describe implementations in the
  FHI-aims code. The reason is purely practical (length of this list) - please credit others as well.

------------------------------------------------------------
          Leaving FHI-aims.
          Date     :  20250120, Time     :  141621.472

          Computational steps:
          | Number of self-consistency cycles          :           22
          | Number of SCF (re)initializations          :            1

          Detailed time accounting                     :  max(cpu_time)    wall_clock(cpu1)
          | Total time                                  :      449.358 s         449.440 s
          | Preparation time                            :        0.595 s           0.591 s
          | Boundary condition initalization            :        0.151 s           0.151 s
          | Grid partitioning                           :        0.374 s           0.374 s
          | Preloading free-atom quantities on grid     :        2.197 s           2.197 s
          | Free-atom superposition energy              :        0.238 s           0.238 s
          | Total time for integrations                 :      119.728 s         119.730 s
          | Total time for solution of K.-S. equations  :      160.362 s         160.381 s
          | Total time for density update               :      104.058 s         104.067 s
          | Total time for mixing                       :        0.093 s           0.096 s
          | Total time for Hartree multipole update     :        0.116 s           0.115 s
          | Total time for Hartree multipole sum        :       11.030 s          11.032 s
          | Total time for total energy evaluation      :        0.068 s           0.073 s
          | Total time for scaled ZORA corrections      :       15.828 s          15.833 s
          | Total time for Mulliken analysis            :       34.396 s          34.397 s

          Partial memory accounting:
          | Residual value for overall tracked memory usage across tasks:     0.000000 MB (should be 0.000000 MB)
          | Peak values for overall tracked memory usage:
          |   Minimum:      121.352 MB (on task 10 after allocating eval_tmp)
          |   Maximum:      128.415 MB (on task  5 after allocating eval_tmp)
          |   Average:      122.472 MB
          | Largest tracked array allocation:
          |   Minimum:       21.088 MB (KS_eigenvector_complex on task  0)
          |   Maximum:       28.117 MB (KS_eigenvector_complex on task  1)
          |   Average:       22.186 MB
          Note:  These values currently only include a subset of arrays which are explicitly tracked.
          The "true" memory usage will be greater.

          Have a nice day.
------------------------------------------------------------
