------------------------------------------------------------
          Invoking FHI-aims ...

          When using FHI-aims, please cite the following reference:

            Volker Blum, Ralf Gehrke, Felix Hanke, Paula Havu,
            Ville Havu, Xinguo Ren, Karsten Reuter, and Matthias Scheffler,
            'Ab Initio Molecular Simulations with Numeric Atom-Centered Orbitals',
            Computer Physics Communications 180, 2175-2196 (2009)

          In addition, many other developments in FHI-aims are likely important for
          your particular application. If so, please cite them. A partial list of references
          is written at the end of this file. Thank you for giving credit to the authors
          of these developments.

          For general information about FHI-aims please find us at

            https://fhi-aims.org

          Online tutorials can be found at

            https://fhi-aims-club.gitlab.io/tutorials/tutorials-overview/

          For any questions about FHI-aims, please visit our slack channel at

            https://fhi-aims.slack.com

          and our main development and support site at

            https://aims-git.rz-berlin.mpg.de .

          The latter site, in particular, has a wiki to collect information, as well
          as an issue tracker to log discussions, suggest improvements, and report issues
          or bugs. https://aims-git.rz-berlin.mpg.de is also the main development site
          of the project and all new and updated code versions can be obtained there.
          Please send an email to aims-coordinators@fhi-berlin.mpg.de and we will add
          you to these sites. They are for you and everyone is welcome there.

------------------------------------------------------------



  Date     :  20240819, Time     :  010751.915
  Time zero on CPU 1             :   0.801799000000000E+00  s.
  Internal wall clock time zero  :           493261671.915  s.

  FHI-aims created a unique identifier for this run for later identification
  aims_uuid : ABDFFD04-7890-4D7B-A204-C81057F09AE1

  Build configuration of the current instance of FHI-aims
  -------------------------------------------------------
  FHI-aims version      : 240605
  Commit number         : b001b2e18
  CMake host system     : Linux-6.5.0-41-generic
  CMake version         : 3.22.1
  Fortran compiler      : /opt/intel/oneapi/mpi/2021.12/bin/mpiifort (IntelLLVM) version 2024.1.0
  Fortran compiler flags: -fc=ifx -O3 -ip -fp-model precise
  C compiler            : /opt/intel/oneapi/mpi/2021.12/bin/mpiicc (IntelLLVM) version 2024.1.0
  C compiler flags      : -cc=icx -O3 -ip -fp-model precise -std=gnu99
  C++ compiler          : /opt/intel/oneapi/mpi/2021.12/bin/mpiicpc (IntelLLVM) version 2024.1.0
  C++ compiler flags    : -cxx=icpx -O3 -ip -fp-model precise -std=c++11
  HIP compiler          :
  HIP compiler flags    :
  HIP GPU arch          :
  Using MPI
  Using ScaLAPACK
  Using LibXC
  Using i-PI
  Using RLSY
  Linking against: /opt/intel/oneapi/mkl/2024.1/lib/intel64/libmkl_intel_lp64.so
                   /opt/intel/oneapi/mkl/2024.1/lib/intel64/libmkl_sequential.so
                   /opt/intel/oneapi/mkl/2024.1/lib/intel64/libmkl_core.so
                   /opt/intel/oneapi/mkl/2024.1/lib/intel64/libmkl_blacs_intelmpi_lp64.so
                   /opt/intel/oneapi/mkl/2024.1/lib/intel64/libmkl_scalapack_lp64.so
                   /opt/intel/oneapi/mkl/2024.1/lib/intel64/libmkl_core.so

  Using      128 parallel tasks.
  Task        0 on host RSL-arvutus reporting.
  Task        1 on host RSL-arvutus reporting.
  Task        2 on host RSL-arvutus reporting.
  Task        3 on host RSL-arvutus reporting.
  Task        4 on host RSL-arvutus reporting.
  Task        5 on host RSL-arvutus reporting.
  Task        6 on host RSL-arvutus reporting.
  Task        7 on host RSL-arvutus reporting.
  Task        8 on host RSL-arvutus reporting.
  Task        9 on host RSL-arvutus reporting.
  Task       10 on host RSL-arvutus reporting.
  Task       11 on host RSL-arvutus reporting.
  Task       12 on host RSL-arvutus reporting.
  Task       13 on host RSL-arvutus reporting.
  Task       14 on host RSL-arvutus reporting.
  Task       15 on host RSL-arvutus reporting.
  Task       16 on host RSL-arvutus reporting.
  Task       17 on host RSL-arvutus reporting.
  Task       18 on host RSL-arvutus reporting.
  Task       19 on host RSL-arvutus reporting.
  Task       20 on host RSL-arvutus reporting.
  Task       21 on host RSL-arvutus reporting.
  Task       22 on host RSL-arvutus reporting.
  Task       23 on host RSL-arvutus reporting.
  Task       24 on host RSL-arvutus reporting.
  Task       25 on host RSL-arvutus reporting.
  Task       26 on host RSL-arvutus reporting.
  Task       27 on host RSL-arvutus reporting.
  Task       28 on host RSL-arvutus reporting.
  Task       29 on host RSL-arvutus reporting.
  Task       30 on host RSL-arvutus reporting.
  Task       31 on host RSL-arvutus reporting.
  Task       32 on host RSL-arvutus reporting.
  Task       33 on host RSL-arvutus reporting.
  Task       34 on host RSL-arvutus reporting.
  Task       35 on host RSL-arvutus reporting.
  Task       36 on host RSL-arvutus reporting.
  Task       37 on host RSL-arvutus reporting.
  Task       38 on host RSL-arvutus reporting.
  Task       39 on host RSL-arvutus reporting.
  Task       40 on host RSL-arvutus reporting.
  Task       41 on host RSL-arvutus reporting.
  Task       42 on host RSL-arvutus reporting.
  Task       43 on host RSL-arvutus reporting.
  Task       44 on host RSL-arvutus reporting.
  Task       45 on host RSL-arvutus reporting.
  Task       46 on host RSL-arvutus reporting.
  Task       47 on host RSL-arvutus reporting.
  Task       48 on host RSL-arvutus reporting.
  Task       49 on host RSL-arvutus reporting.
  Task       50 on host RSL-arvutus reporting.
  Task       51 on host RSL-arvutus reporting.
  Task       52 on host RSL-arvutus reporting.
  Task       53 on host RSL-arvutus reporting.
  Task       54 on host RSL-arvutus reporting.
  Task       55 on host RSL-arvutus reporting.
  Task       56 on host RSL-arvutus reporting.
  Task       57 on host RSL-arvutus reporting.
  Task       58 on host RSL-arvutus reporting.
  Task       59 on host RSL-arvutus reporting.
  Task       60 on host RSL-arvutus reporting.
  Task       61 on host RSL-arvutus reporting.
  Task       62 on host RSL-arvutus reporting.
  Task       63 on host RSL-arvutus reporting.
  Task       64 on host RSL-arvutus reporting.
  Task       65 on host RSL-arvutus reporting.
  Task       66 on host RSL-arvutus reporting.
  Task       67 on host RSL-arvutus reporting.
  Task       68 on host RSL-arvutus reporting.
  Task       69 on host RSL-arvutus reporting.
  Task       70 on host RSL-arvutus reporting.
  Task       71 on host RSL-arvutus reporting.
  Task       72 on host RSL-arvutus reporting.
  Task       73 on host RSL-arvutus reporting.
  Task       74 on host RSL-arvutus reporting.
  Task       75 on host RSL-arvutus reporting.
  Task       76 on host RSL-arvutus reporting.
  Task       77 on host RSL-arvutus reporting.
  Task       78 on host RSL-arvutus reporting.
  Task       79 on host RSL-arvutus reporting.
  Task       80 on host RSL-arvutus reporting.
  Task       81 on host RSL-arvutus reporting.
  Task       82 on host RSL-arvutus reporting.
  Task       83 on host RSL-arvutus reporting.
  Task       84 on host RSL-arvutus reporting.
  Task       85 on host RSL-arvutus reporting.
  Task       86 on host RSL-arvutus reporting.
  Task       87 on host RSL-arvutus reporting.
  Task       88 on host RSL-arvutus reporting.
  Task       89 on host RSL-arvutus reporting.
  Task       90 on host RSL-arvutus reporting.
  Task       91 on host RSL-arvutus reporting.
  Task       92 on host RSL-arvutus reporting.
  Task       93 on host RSL-arvutus reporting.
  Task       94 on host RSL-arvutus reporting.
  Task       95 on host RSL-arvutus reporting.
  Task       96 on host RSL-arvutus reporting.
  Task       97 on host RSL-arvutus reporting.
  Task       98 on host RSL-arvutus reporting.
  Task       99 on host RSL-arvutus reporting.
  Task      100 on host RSL-arvutus reporting.
  Task      101 on host RSL-arvutus reporting.
  Task      102 on host RSL-arvutus reporting.
  Task      103 on host RSL-arvutus reporting.
  Task      104 on host RSL-arvutus reporting.
  Task      105 on host RSL-arvutus reporting.
  Task      106 on host RSL-arvutus reporting.
  Task      107 on host RSL-arvutus reporting.
  Task      108 on host RSL-arvutus reporting.
  Task      109 on host RSL-arvutus reporting.
  Task      110 on host RSL-arvutus reporting.
  Task      111 on host RSL-arvutus reporting.
  Task      112 on host RSL-arvutus reporting.
  Task      113 on host RSL-arvutus reporting.
  Task      114 on host RSL-arvutus reporting.
  Task      115 on host RSL-arvutus reporting.
  Task      116 on host RSL-arvutus reporting.
  Task      117 on host RSL-arvutus reporting.
  Task      118 on host RSL-arvutus reporting.
  Task      119 on host RSL-arvutus reporting.
  Task      120 on host RSL-arvutus reporting.
  Task      121 on host RSL-arvutus reporting.
  Task      122 on host RSL-arvutus reporting.
  Task      123 on host RSL-arvutus reporting.
  Task      124 on host RSL-arvutus reporting.
  Task      125 on host RSL-arvutus reporting.
  Task      126 on host RSL-arvutus reporting.
  Task      127 on host RSL-arvutus reporting.

  Memory overcommitment is allowed on your operating system.

  Obtaining array dimensions for all initial allocations:
  
  -----------------------------------------------------------------------
  Parsing control.in (first pass over file, find array dimensions only).
  The contents of control.in will be repeated verbatim below
  unless switched off by setting 'verbatim_writeout .false.' .
  in the first line of control.in .
  -----------------------------------------------------------------------
  
  xc              scan
  relativistic    atomic_zora scalar
  k_grid          6 6 1
  spin		none
  relax_unit_cell none
  ################################################################################
  #
  #  FHI-aims code project
  #  VB, Fritz-Haber Institut, 2009
  #
  #  Suggested "light" defaults for Ti atom (to be pasted into control.in file)
  #  Be sure to double-check any results obtained with these settings for post-processing,
  #  e.g., with the "tight" defaults and larger basis sets.
  #
  ################################################################################
    species        Ti
  #     global species definitions
      nucleus             22
      mass                47.867
  #
      l_hartree           4
  #
      cut_pot             3.5          1.5  1.0
      basis_dep_cutoff    1e-4
  #
      radial_base         48 5.0
      radial_multiplier   1
      angular_grids       specified
        division   0.5171   50
        division   0.9824  110
        division   1.2917  194
        division   1.4940  302
  #      division   1.6934  434
  #      division   1.8425  590
  #      division   2.1901  770
  #      division   2.2896  974
  #      division   2.8244 1202
  #      outer_grid  974
        outer_grid  302
  ################################################################################
  #
  #  Definition of "minimal" basis
  #
  ################################################################################
  #     valence basis states
      valence      4  s   2.
      valence      3  p   6.
      valence      3  d   2.
  #     ion occupancy
      ion_occ      4  s   1.
      ion_occ      3  p   6.
      ion_occ      3  d   1.
  ################################################################################
  #
  #  Suggested additional basis functions. For production calculations,
  #  uncomment them one after another (the most important basis functions are
  #  listed first).
  #
  #  Constructed for dimers: 1.6 A, 1.85 A, 2.5 A, 3.25 A, 4.25 A
  #
  ################################################################################
  #  "First tier" - improvements: -396.25 meV to -19.41 meV
       hydro 4 f 8
       hydro 3 d 2.7
       ionic 4 p auto
  #     hydro 5 g 11.6
       ionic 4 s auto
  #  "Second tier" - improvements: -16.30 meV to -2.03 meV
  #     hydro 3 d 4.4
  #     hydro 6 h 16
  #     hydro 4 f 9.4
  #     hydro 4 p 4.5
  #     hydro 1 s 0.5
  #  "Third tier" - improvements: -6.28 meV to -0.37 meV
  #     hydro 4 d 6.4
  #     hydro 4 f 10
  #     hydro 5 g 12
  #     hydro 2 p 1.7
  #     hydro 6 h 16.4
  #     hydro 4 s 3.8
  #  Further basis functions: -0.45 meV and smaller improvements
  #     hydro 3 d 8.8
  #     hydro 5 p 18
  #     hydro 4 f 22.4
  #     hydro 5 f 7.2  # -0.16 meV
  #     hydro 3 d 2.1  # -0.11 meV
  #     hydro 5 g 7.4  # -0.09 meV
  ################################################################################
  #
  #  FHI-aims code project
  #  VB, Fritz-Haber Institut, 2009
  #
  #  Suggested "light" defaults for O atom (to be pasted into control.in file)
  #  Be sure to double-check any results obtained with these settings for post-processing,
  #  e.g., with the "tight" defaults and larger basis sets.
  #
  ################################################################################
    species        O
  #     global species definitions
      nucleus             8
      mass                15.9994
  #
      l_hartree           4
  #
      cut_pot             3.5  1.5  1.0
      basis_dep_cutoff    1e-4
  #
      radial_base         36 5.0
      radial_multiplier   1
       angular_grids specified
        division   0.2659   50
        division   0.4451  110
        division   0.6052  194
        division   0.7543  302
  #      division   0.8014  434
  #      division   0.8507  590
  #      division   0.8762  770
  #      division   0.9023  974
  #      division   1.2339 1202
  #      outer_grid 974
        outer_grid 302
  ################################################################################
  #
  #  Definition of "minimal" basis
  #
  ################################################################################
  #     valence basis states
      valence      2  s   2.
      valence      2  p   4.
  #     ion occupancy
      ion_occ      2  s   1.
      ion_occ      2  p   3.
  ################################################################################
  #
  #  Suggested additional basis functions. For production calculations,
  #  uncomment them one after another (the most important basis functions are
  #  listed first).
  #
  #  Constructed for dimers: 1.0 A, 1.208 A, 1.5 A, 2.0 A, 3.0 A
  #
  ################################################################################
  #  "First tier" - improvements: -699.05 meV to -159.38 meV
       hydro 2 p 1.8
       hydro 3 d 7.6
       hydro 3 s 6.4
  #  "Second tier" - improvements: -49.91 meV to -5.39 meV
  #     hydro 4 f 11.6
  #     hydro 3 p 6.2
  #     hydro 3 d 5.6
  #     hydro 5 g 17.6
  #     hydro 1 s 0.75
  #  "Third tier" - improvements: -2.83 meV to -0.50 meV
  #     ionic 2 p auto
  #     hydro 4 f 10.8
  #     hydro 4 d 4.7
  #     hydro 2 s 6.8
  #  "Fourth tier" - improvements: -0.40 meV to -0.12 meV
  #     hydro 3 p 5
  #     hydro 3 s 3.3
  #     hydro 5 g 15.6
  #     hydro 4 f 17.6
  #     hydro 4 d 14
  # Further basis functions - -0.08 meV and below
  #     hydro 3 s 2.1
  #     hydro 4 d 11.6
  #     hydro 3 p 16
  #     hydro 2 s 17.2
  
  -----------------------------------------------------------------------
  Completed first pass over input file control.in .
  -----------------------------------------------------------------------
  
  
  -----------------------------------------------------------------------
  Parsing geometry.in (first pass over file, find array dimensions only).
  The contents of geometry.in will be repeated verbatim below
  unless switched off by setting 'verbatim_writeout .false.' .
  in the first line of geometry.in .
  -----------------------------------------------------------------------
  
  lattice_vector 6.496897  0.000000  0.000000
  lattice_vector 0.000000  2.958000  0.000000
  lattice_vector 0.000000  0.000000  20.230002
  
  atom_frac 0.000000  0.000000  0.370736  Ti
  atom_frac 0.500000  0.500000  0.370736  Ti
  atom_frac 0.305000  0.500000  0.370736  O
  atom_frac 0.695000  0.500000  0.370736  O
  atom_frac 0.500000  0.500000  0.433361  O
  atom_frac 0.000000  0.000000  0.468688  O
  atom_frac 0.500000  0.000000  0.531312  Ti
  atom_frac 0.000000  0.500000  0.531312  Ti
  atom_frac 0.805000  0.500000  0.531312  O
  atom_frac 0.195000  0.500000  0.531312  O
  atom_frac 0.000000  0.000000  0.593937  O
  atom_frac 0.500000  0.000000  0.629264  O
  
  
  -----------------------------------------------------------------------
  Completed first pass over input file geometry.in .
  -----------------------------------------------------------------------
  

  Basic array size parameters:
  | Number of species                 :        2
  | Number of atoms                   :       12
  | Number of lattice vectors         :        3
  | Max. basis fn. angular momentum   :        3
  | Max. atomic/ionic basis occupied n:        4
  | Max. number of basis fn. types    :        3
  | Max. radial fns per species/type  :        7
  | Max. logarithmic grid size        :     1383
  | Max. radial integration grid size :       48
  | Max. angular integration grid size:      302
  | Max. angular grid division number :        8
  | Radial grid for Hartree potential :     1383
  | Number of spin channels           :        1

------------------------------------------------------------
          Reading file control.in.
------------------------------------------------------------
  WARNING: The in-house xc SCAN implementation has been deprecated.
  WARNING: Using xc dfauto SCAN implementation instead.
  XC: Using the parameter-free meta-GGA functional SCAN.
  Scalar relativistic treatment of kinetic energy: on-site free-atom approximation to ZORA.
  Found k-point grid:         6         6         1
  Spin treatment: No spin polarisation.
  Unit cell relaxation: No relaxation of the unit cell will be performed.
 
  Reading configuration options for species Ti                  .
  | Found nuclear charge :  22.0000
  | Found atomic mass :    47.8670000000000      amu
  | Found l_max for Hartree potential  :   4
  | Found cutoff potl. onset [A], width [A], scale factor :    3.50000    1.50000    1.00000
  | Threshold for basis-dependent cutoff potential is   0.100000E-03
  | Found data for basic radial integration grid :    48 points, outermost radius =    5.000 A
  | Found multiplier for basic radial grid :   1
  | Found angular grid specification: user-specified.
  | Specified grid contains     5 separate shells.
  | Check grid settings after all constraints further below.
  | Found free-atom valence shell :  4 s   2.000
  | Found free-atom valence shell :  3 p   6.000
  | Found free-atom valence shell :  3 d   2.000
  | Found free-ion valence shell :  4 s   1.000
  | Found free-ion valence shell :  3 p   6.000
  | Found free-ion valence shell :  3 d   1.000
  | Found hydrogenic basis function :  4 f   8.000
  | Found hydrogenic basis function :  3 d   2.700
  | Found ionic basis function :  4 p , default cutoff radius.
  | Found ionic basis function :  4 s , default cutoff radius.
 | Encountered keyword species, ending the description of species Ti                  .
  Species Ti                  : Missing cutoff potential type.
  Defaulting to exp(1/x)/(1-x)^2 type cutoff potential.
  Species Ti: No 'logarithmic' tag. Using default grid for free atom:
  | Default logarithmic grid data [bohr] : 0.1000E-03 0.1000E+03 0.1012E+01
  | Will include ionic basis functions of  2.0-fold positive Ti                   ion.
  Species Ti: On-site basis accuracy parameter (for Gram-Schmidt orthonormalisation) not specified.
  Using default value basis_acc =  0.1000000E-03.
  Species Ti                  : Using default innermost maximum threshold i_radial=  2 for radial functions.
  Species Ti                  : Default cutoff onset for free atom density etc. : 0.35000000E+01 AA.
  Species Ti                  : Basic radial grid will be enhanced according to radial_multiplier =   1, to contain    48 grid points.
 
  Reading configuration options for species O                   .
  | Found nuclear charge :   8.0000
  | Found atomic mass :    15.9994000000000      amu
  | Found l_max for Hartree potential  :   4
  | Found cutoff potl. onset [A], width [A], scale factor :    3.50000    1.50000    1.00000
  | Threshold for basis-dependent cutoff potential is   0.100000E-03
  | Found data for basic radial integration grid :    36 points, outermost radius =    5.000 A
  | Found multiplier for basic radial grid :   1
  | Found angular grid specification: user-specified.
  | Specified grid contains     5 separate shells.
  | Check grid settings after all constraints further below.
  | Found free-atom valence shell :  2 s   2.000
  | Found free-atom valence shell :  2 p   4.000
  | Found free-ion valence shell :  2 s   1.000
  | Found free-ion valence shell :  2 p   3.000
  | Found hydrogenic basis function :  2 p   1.800
  | Found hydrogenic basis function :  3 d   7.600
  | Found hydrogenic basis function :  3 s   6.400
  Species O                   : Missing cutoff potential type.
  Defaulting to exp(1/x)/(1-x)^2 type cutoff potential.
  Species O : No 'logarithmic' tag. Using default grid for free atom:
  | Default logarithmic grid data [bohr] : 0.1000E-03 0.1000E+03 0.1012E+01
  Species O : On-site basis accuracy parameter (for Gram-Schmidt orthonormalisation) not specified.
  Using default value basis_acc =  0.1000000E-03.
  Species O                   : Using default innermost maximum threshold i_radial=  2 for radial functions.
  Species O                   : Default cutoff onset for free atom density etc. : 0.35000000E+01 AA.
  Species O                   : Basic radial grid will be enhanced according to radial_multiplier =   1, to contain    36 grid points.
 
  Finished reading input file 'control.in'.
 
------------------------------------------------------------


------------------------------------------------------------
          Reading geometry description geometry.in.
------------------------------------------------------------
  | The smallest distance between any two atoms is         1.26689491 AA.
  | The first atom of this pair is atom number                      8 .
  | The second atom of this pair is atom number                     9 .
  | Wigner-Seitz cell of the first atom image           0     0     0 .
  | (The Wigner-Seitz cell of the second atom is 0 0 0  by definition.)

  Symmetry information by spglib:
  | Precision set to  0.1E-04
  | Number of Operations  : 4
  | Space group           : 25
  | International         : Pmm2
  | Schoenflies           : C2v^1
  Input structure read successfully.
  The structure contains       12 atoms,  and a total of        152.000 electrons.

  Input geometry:
  | Unit cell:
  |        6.49689700        0.00000000        0.00000000
  |        0.00000000        2.95800000        0.00000000
  |        0.00000000        0.00000000       20.23000200
  | Atomic structure:
  |       Atom                x [A]            y [A]            z [A]
  |    1: Species Ti            0.00000000        0.00000000        7.49999002
  |    2: Species Ti            3.24844850        1.47900000        7.49999002
  |    3: Species O             1.98155358        1.47900000        7.49999002
  |    4: Species O             4.51534341        1.47900000        7.49999002
  |    5: Species O             3.24844850        1.47900000        8.76689390
  |    6: Species O             0.00000000        0.00000000        9.48155918
  |    7: Species Ti            3.24844850        0.00000000       10.74844282
  |    8: Species Ti            0.00000000        1.47900000       10.74844282
  |    9: Species O             5.23000208        1.47900000       10.74844282
  |   10: Species O             1.26689491        1.47900000       10.74844282
  |   11: Species O             0.00000000        0.00000000       12.01534670
  |   12: Species O             3.24844850        0.00000000       12.73001198

  Lattice parameters for 3D lattice (in Angstroms) :     6.496897    2.958000   20.230002
  Angle(s) between unit vectors (in degrees)       :    90.000000   90.000000   90.000000


  Quantities derived from the lattice vectors (in Angstrom^-1):
  | Reciprocal lattice vector 1:  0.967106  0.000000  0.000000
  | Reciprocal lattice vector 2:  0.000000  2.124133  0.000000
  | Reciprocal lattice vector 3:  0.000000  0.000000  0.310587
  | Unit cell volume                               :   0.388777E+03  Angstrom^3

  Fractional coordinates:
                         L1                L2                L3
       atom_frac         0.00000000        0.00000000        0.37073600  Ti
       atom_frac         0.50000000        0.50000000        0.37073600  Ti
       atom_frac         0.30500000        0.50000000        0.37073600  O
       atom_frac         0.69500000        0.50000000        0.37073600  O
       atom_frac         0.50000000        0.50000000        0.43336100  O
       atom_frac         0.00000000        0.00000000        0.46868800  O
       atom_frac         0.50000000        0.00000000        0.53131200  Ti
       atom_frac         0.00000000        0.50000000        0.53131200  Ti
       atom_frac         0.80500000        0.50000000        0.53131200  O
       atom_frac         0.19500000        0.50000000        0.53131200  O
       atom_frac         0.00000000        0.00000000        0.59393700  O
       atom_frac         0.50000000        0.00000000        0.62926400  O

  Slab Identifier: This is Z-oriented slab and maximum thickness of the vacuum is: 15.000 Angstrom.
 
  Finished reading input file 'geometry.in'.
 

 
  Consistency checks for stacksize environment parameter are next.
 
  | Maximum stacksize for task 0: unlimited
  | Maximum stacksize for task 1: unlimited
  | Maximum stacksize for task 2: unlimited
  | Maximum stacksize for task 3: unlimited
  | Maximum stacksize for task 4: unlimited
  | Maximum stacksize for task 5: unlimited
  | Maximum stacksize for task 6: unlimited
  | Maximum stacksize for task 7: unlimited
  | Maximum stacksize for task 8: unlimited
  | Maximum stacksize for task 9: unlimited
  | Maximum stacksize for task 10: unlimited
  | Maximum stacksize for task 11: unlimited
  | Maximum stacksize for task 12: unlimited
  | Maximum stacksize for task 13: unlimited
  | Maximum stacksize for task 14: unlimited
  | Maximum stacksize for task 15: unlimited
  | Maximum stacksize for task 16: unlimited
  | Maximum stacksize for task 17: unlimited
  | Maximum stacksize for task 18: unlimited
  | Maximum stacksize for task 19: unlimited
  | Maximum stacksize for task 20: unlimited
  | Maximum stacksize for task 21: unlimited
  | Maximum stacksize for task 22: unlimited
  | Maximum stacksize for task 23: unlimited
  | Maximum stacksize for task 24: unlimited
  | Maximum stacksize for task 25: unlimited
  | Maximum stacksize for task 26: unlimited
  | Maximum stacksize for task 27: unlimited
  | Maximum stacksize for task 28: unlimited
  | Maximum stacksize for task 29: unlimited
  | Maximum stacksize for task 30: unlimited
  | Maximum stacksize for task 31: unlimited
  | Maximum stacksize for task 32: unlimited
  | Maximum stacksize for task 33: unlimited
  | Maximum stacksize for task 34: unlimited
  | Maximum stacksize for task 35: unlimited
  | Maximum stacksize for task 36: unlimited
  | Maximum stacksize for task 37: unlimited
  | Maximum stacksize for task 38: unlimited
  | Maximum stacksize for task 39: unlimited
  | Maximum stacksize for task 40: unlimited
  | Maximum stacksize for task 41: unlimited
  | Maximum stacksize for task 42: unlimited
  | Maximum stacksize for task 43: unlimited
  | Maximum stacksize for task 44: unlimited
  | Maximum stacksize for task 45: unlimited
  | Maximum stacksize for task 46: unlimited
  | Maximum stacksize for task 47: unlimited
  | Maximum stacksize for task 48: unlimited
  | Maximum stacksize for task 49: unlimited
  | Maximum stacksize for task 50: unlimited
  | Maximum stacksize for task 51: unlimited
  | Maximum stacksize for task 52: unlimited
  | Maximum stacksize for task 53: unlimited
  | Maximum stacksize for task 54: unlimited
  | Maximum stacksize for task 55: unlimited
  | Maximum stacksize for task 56: unlimited
  | Maximum stacksize for task 57: unlimited
  | Maximum stacksize for task 58: unlimited
  | Maximum stacksize for task 59: unlimited
  | Maximum stacksize for task 60: unlimited
  | Maximum stacksize for task 61: unlimited
  | Maximum stacksize for task 62: unlimited
  | Maximum stacksize for task 63: unlimited
  | Maximum stacksize for task 64: unlimited
  | Maximum stacksize for task 65: unlimited
  | Maximum stacksize for task 66: unlimited
  | Maximum stacksize for task 67: unlimited
  | Maximum stacksize for task 68: unlimited
  | Maximum stacksize for task 69: unlimited
  | Maximum stacksize for task 70: unlimited
  | Maximum stacksize for task 71: unlimited
  | Maximum stacksize for task 72: unlimited
  | Maximum stacksize for task 73: unlimited
  | Maximum stacksize for task 74: unlimited
  | Maximum stacksize for task 75: unlimited
  | Maximum stacksize for task 76: unlimited
  | Maximum stacksize for task 77: unlimited
  | Maximum stacksize for task 78: unlimited
  | Maximum stacksize for task 79: unlimited
  | Maximum stacksize for task 80: unlimited
  | Maximum stacksize for task 81: unlimited
  | Maximum stacksize for task 82: unlimited
  | Maximum stacksize for task 83: unlimited
  | Maximum stacksize for task 84: unlimited
  | Maximum stacksize for task 85: unlimited
  | Maximum stacksize for task 86: unlimited
  | Maximum stacksize for task 87: unlimited
  | Maximum stacksize for task 88: unlimited
  | Maximum stacksize for task 89: unlimited
  | Maximum stacksize for task 90: unlimited
  | Maximum stacksize for task 91: unlimited
  | Maximum stacksize for task 92: unlimited
  | Maximum stacksize for task 93: unlimited
  | Maximum stacksize for task 94: unlimited
  | Maximum stacksize for task 95: unlimited
  | Maximum stacksize for task 96: unlimited
  | Maximum stacksize for task 97: unlimited
  | Maximum stacksize for task 98: unlimited
  | Maximum stacksize for task 99: unlimited
  | Maximum stacksize for task 100: unlimited
  | Maximum stacksize for task 101: unlimited
  | Maximum stacksize for task 102: unlimited
  | Maximum stacksize for task 103: unlimited
  | Maximum stacksize for task 104: unlimited
  | Maximum stacksize for task 105: unlimited
  | Maximum stacksize for task 106: unlimited
  | Maximum stacksize for task 107: unlimited
  | Maximum stacksize for task 108: unlimited
  | Maximum stacksize for task 109: unlimited
  | Maximum stacksize for task 110: unlimited
  | Maximum stacksize for task 111: unlimited
  | Maximum stacksize for task 112: unlimited
  | Maximum stacksize for task 113: unlimited
  | Maximum stacksize for task 114: unlimited
  | Maximum stacksize for task 115: unlimited
  | Maximum stacksize for task 116: unlimited
  | Maximum stacksize for task 117: unlimited
  | Maximum stacksize for task 118: unlimited
  | Maximum stacksize for task 119: unlimited
  | Maximum stacksize for task 120: unlimited
  | Maximum stacksize for task 121: unlimited
  | Maximum stacksize for task 122: unlimited
  | Maximum stacksize for task 123: unlimited
  | Maximum stacksize for task 124: unlimited
  | Maximum stacksize for task 125: unlimited
  | Maximum stacksize for task 126: unlimited
  | Maximum stacksize for task 127: unlimited
  | Current stacksize for task 0: unlimited
  | Current stacksize for task 1: unlimited
  | Current stacksize for task 2: unlimited
  | Current stacksize for task 3: unlimited
  | Current stacksize for task 4: unlimited
  | Current stacksize for task 5: unlimited
  | Current stacksize for task 6: unlimited
  | Current stacksize for task 7: unlimited
  | Current stacksize for task 8: unlimited
  | Current stacksize for task 9: unlimited
  | Current stacksize for task 10: unlimited
  | Current stacksize for task 11: unlimited
  | Current stacksize for task 12: unlimited
  | Current stacksize for task 13: unlimited
  | Current stacksize for task 14: unlimited
  | Current stacksize for task 15: unlimited
  | Current stacksize for task 16: unlimited
  | Current stacksize for task 17: unlimited
  | Current stacksize for task 18: unlimited
  | Current stacksize for task 19: unlimited
  | Current stacksize for task 20: unlimited
  | Current stacksize for task 21: unlimited
  | Current stacksize for task 22: unlimited
  | Current stacksize for task 23: unlimited
  | Current stacksize for task 24: unlimited
  | Current stacksize for task 25: unlimited
  | Current stacksize for task 26: unlimited
  | Current stacksize for task 27: unlimited
  | Current stacksize for task 28: unlimited
  | Current stacksize for task 29: unlimited
  | Current stacksize for task 30: unlimited
  | Current stacksize for task 31: unlimited
  | Current stacksize for task 32: unlimited
  | Current stacksize for task 33: unlimited
  | Current stacksize for task 34: unlimited
  | Current stacksize for task 35: unlimited
  | Current stacksize for task 36: unlimited
  | Current stacksize for task 37: unlimited
  | Current stacksize for task 38: unlimited
  | Current stacksize for task 39: unlimited
  | Current stacksize for task 40: unlimited
  | Current stacksize for task 41: unlimited
  | Current stacksize for task 42: unlimited
  | Current stacksize for task 43: unlimited
  | Current stacksize for task 44: unlimited
  | Current stacksize for task 45: unlimited
  | Current stacksize for task 46: unlimited
  | Current stacksize for task 47: unlimited
  | Current stacksize for task 48: unlimited
  | Current stacksize for task 49: unlimited
  | Current stacksize for task 50: unlimited
  | Current stacksize for task 51: unlimited
  | Current stacksize for task 52: unlimited
  | Current stacksize for task 53: unlimited
  | Current stacksize for task 54: unlimited
  | Current stacksize for task 55: unlimited
  | Current stacksize for task 56: unlimited
  | Current stacksize for task 57: unlimited
  | Current stacksize for task 58: unlimited
  | Current stacksize for task 59: unlimited
  | Current stacksize for task 60: unlimited
  | Current stacksize for task 61: unlimited
  | Current stacksize for task 62: unlimited
  | Current stacksize for task 63: unlimited
  | Current stacksize for task 64: unlimited
  | Current stacksize for task 65: unlimited
  | Current stacksize for task 66: unlimited
  | Current stacksize for task 67: unlimited
  | Current stacksize for task 68: unlimited
  | Current stacksize for task 69: unlimited
  | Current stacksize for task 70: unlimited
  | Current stacksize for task 71: unlimited
  | Current stacksize for task 72: unlimited
  | Current stacksize for task 73: unlimited
  | Current stacksize for task 74: unlimited
  | Current stacksize for task 75: unlimited
  | Current stacksize for task 76: unlimited
  | Current stacksize for task 77: unlimited
  | Current stacksize for task 78: unlimited
  | Current stacksize for task 79: unlimited
  | Current stacksize for task 80: unlimited
  | Current stacksize for task 81: unlimited
  | Current stacksize for task 82: unlimited
  | Current stacksize for task 83: unlimited
  | Current stacksize for task 84: unlimited
  | Current stacksize for task 85: unlimited
  | Current stacksize for task 86: unlimited
  | Current stacksize for task 87: unlimited
  | Current stacksize for task 88: unlimited
  | Current stacksize for task 89: unlimited
  | Current stacksize for task 90: unlimited
  | Current stacksize for task 91: unlimited
  | Current stacksize for task 92: unlimited
  | Current stacksize for task 93: unlimited
  | Current stacksize for task 94: unlimited
  | Current stacksize for task 95: unlimited
  | Current stacksize for task 96: unlimited
  | Current stacksize for task 97: unlimited
  | Current stacksize for task 98: unlimited
  | Current stacksize for task 99: unlimited
  | Current stacksize for task 100: unlimited
  | Current stacksize for task 101: unlimited
  | Current stacksize for task 102: unlimited
  | Current stacksize for task 103: unlimited
  | Current stacksize for task 104: unlimited
  | Current stacksize for task 105: unlimited
  | Current stacksize for task 106: unlimited
  | Current stacksize for task 107: unlimited
  | Current stacksize for task 108: unlimited
  | Current stacksize for task 109: unlimited
  | Current stacksize for task 110: unlimited
  | Current stacksize for task 111: unlimited
  | Current stacksize for task 112: unlimited
  | Current stacksize for task 113: unlimited
  | Current stacksize for task 114: unlimited
  | Current stacksize for task 115: unlimited
  | Current stacksize for task 116: unlimited
  | Current stacksize for task 117: unlimited
  | Current stacksize for task 118: unlimited
  | Current stacksize for task 119: unlimited
  | Current stacksize for task 120: unlimited
  | Current stacksize for task 121: unlimited
  | Current stacksize for task 122: unlimited
  | Current stacksize for task 123: unlimited
  | Current stacksize for task 124: unlimited
  | Current stacksize for task 125: unlimited
  | Current stacksize for task 126: unlimited
  | Current stacksize for task 127: unlimited
 
  Consistency checks for the contents of control.in are next.
 
  MPI_IN_PLACE appears to work with this MPI implementation.
  | Keeping use_mpi_in_place .true. (see manual).
  Target number of points in a grid batch is not set. Defaulting to  100
  Method for grid partitioning is not set. Defaulting to parallel hash+maxmin partitioning.
  Batch size limit is not set. Defaulting to    200
  By default, will store active basis functions for each batch.
  If in need of memory, prune_basis_once .false. can be used to disable this option.
  communication_type for Hartree potential was not specified.
  Defaulting to calc_hartree .
  Defaulting to Pulay charge density mixer.
  Pulay mixer: Number of relevant iterations not set.
  Defaulting to    8 iterations.
  Pulay mixer: Number of initial linear mixing iterations not set.
  Defaulting to    0 iterations.
  Work space size for distributed Hartree potential not set.
  Defaulting to   0.200000E+03 MB.
  Mixing parameter for charge density mixing has not been set.
  Using default: charge_mix_param =     0.0500.
  The mixing parameter will be adjusted in iteration number     2 of each s.c.f. cycle (i.e., each geometry step).
  Algorithm-dependent basis array size parameters:
  | n_max_pulay                         :        8
  Maximum number of self-consistency iterations not provided.
  Presetting  1000 iterations.
  Presetting      1001 iterations before the initial mixing cycle
  is restarted anyway using the sc_init_iter criterion / keyword.
  Presetting a factor      1.000 between actual scf density residual
  and density convergence criterion sc_accuracy_rho below which sc_init_iter
  takes no effect.
 * No s.c.f. convergence criteria (sc_accuracy_*) were provided in control.in.
 * The run will proceed with a reasonable default guess, but please check whether.
 * the s.c.f. cycles seem to take too much or too little time.
  Calculation of forces was not defined in control.in. No forces will be calculated.
  Geometry relaxation not requested: no relaxation will be performed.
 * Notice: The s.c.f. convergence criterion sc_accuracy_rho was not provided.
 * We used to stop in this case, and ask the user to provide reasonable
 * scf convergence criteria. However, this led some users to employ criteria
 * that led to extremely long run times, e.g., for simple relaxation.
 * We now preset a default value for sc_accuracy_rho if it is not set.
 * You may still wish to check if this setting is too tight or too loose for your needs.
 * Based on n_atoms and forces and force-correction status, FHI-aims chose sc_accuracy_rho =  0.113137E-04 .
  No accuracy limit for integral partition fn. given. Defaulting to  0.1000E-14.
  No threshold value for u(r) in integrations given. Defaulting to  0.1000E-05.
  No occupation type (smearing scheme) given. Defaulting to Gaussian broadening, width =  0.1000E-01 eV.
  The width will be adjusted in iteration number     2 of each s.c.f. cycle (i.e., each geometry step).
  No accuracy for occupation numbers given. Defaulting to  0.1000E-12.
  No threshold value for occupation numbers given. Defaulting to  0.0000E+00.
  No accuracy for fermi level given. Defaulting to  0.1000E-19.
  Maximum # of iterations to find E_F not set. Defaulting to  200.
  Preferred method for the eigenvalue solver ('KS_method') not specified in 'control.in'.
  Calling BLACS routine to test compilation state
  Since ScaLAPACK support is enabled, defaulting to ELPA (via ELSI).
  Will not use alltoall communication since running on < 1024 CPUs.
  Threshold for basis singularities not set.
  Default threshold for basis singularities:  0.1000E-04
  partition_type (choice of integration weights) for integrals was not specified.
  | Using a version of the partition function of Stratmann and coworkers ('stratmann_sparse').
  | At each grid point, the set of atoms used to build the partition table is smoothly restricted to
  | only those atoms whose free-atom density would be non-zero at that grid point.
  Partitioning for Hartree potential was not defined. Using partition_type for integrals.
  | Adjusted default value of keyword multip_moments_threshold to:       0.10000000E-11
  | This value may affect high angular momentum components of the Hartree potential in periodic systems.
  Angular momentum expansion for Kerker preconditioner not set explicitly.
  | Using default value of   0
  No explicit requirement for turning off preconditioner.
  | By default, it will be turned off when the charge convergence reaches
  | sc_accuracy_rho  =   0.113137E-04
  No special mixing parameter while Kerker preconditioner is on.
  Using default: charge_mix_param =     0.0500.
  No q(lm)/r^(l+1) cutoff set for long-range Hartree potential.
  | Using default value of  0.100000E-09 .
  | Verify using the multipole_threshold keyword.
  Defaulting to new monopole extrapolation.
  Density update method: automatic selection selected.
  Using density matrix based charge density update.
  Using density matrix based charge density update.
  Using packed matrix style: index .
  Defaulting to use time-reversal symmetry for k-point grid.
  Charge integration errors on the 3D integration grid will be compensated
  by explicit normalization and distribution of residual charges.
  Use the "compensate_multipole_errors" flag to change this behaviour.
  Found no potential conflicts with setting 'use_local_index' for this calculation.
  Flag 'use_local_index' has not been set.
  Testing whether we classify this calculation as large-scale ...
  The calculation contains less than 100 atoms. This is most likely not a large-scale calculation.
  Not setting 'use_local_index'.
 
  Consistency checks for the contents of geometry.in are next.
 

  Range separation radius for Ewald summation (hartree_convergence_parameter):      4.62425391 bohr.
  Number of empty states per atom not set in control.in - providing a guess from actual geometry.
  | Total number of empty states used during s.c.f. cycle:       46
  If you use a very high smearing, use empty_states (per atom!) in control.in to increase this value.

  Structure-dependent array size parameters: 
  | Maximum number of distinct radial functions  :       17
  | Maximum number of basis functions            :      236
  | Number of Kohn-Sham states (occupied + empty):      122
------------------------------------------------------------
  After read_input_data [GB]:   1042.72

  Performing system and environment tests:
  *** Environment variable OMP_NUM_THREADS is not set
  *** For performance reasons you might want to set it to 1
  | Checking for ScaLAPACK...
  | Testing pdtran()...
  | All pdtran() tests passed.
  After prepare_system [GB]:   1042.09

------------------------------------------------------------
          Preparing all fixed parts of the calculation.
------------------------------------------------------------
  Determining machine precision:
    2.225073858507201E-308
  Setting up grids for atomic and cluster calculations.

  Creating wave function, potential, and density for free atoms.
  Runtime choices for atomic solver:
  | atomic solver xc        : PW-LDA
  | compute density gradient: 1
  | compute kinetic density : T

  Species: Ti

  List of occupied orbitals and eigenvalues:
    n    l              occ      energy [Ha]    energy [eV]
    1    0           2.0000      -179.482435     -4883.9656
    2    0           2.0000       -19.674169      -535.3614
    3    0           2.0000        -2.270443       -61.7819
    4    0           2.0000        -0.153527        -4.1777
    2    1           6.0000       -16.307552      -443.7511
    3    1           6.0000        -1.407668       -38.3046
    3    2           2.0000        -0.147710        -4.0194


  Species: O

  List of occupied orbitals and eigenvalues:
    n    l              occ      energy [Ha]    energy [eV]
    1    0           2.0000       -18.786109      -511.1960
    2    0           2.0000        -0.872635       -23.7456
    2    1           4.0000        -0.337687        -9.1889


  Adding cutoff potential to free-atom effective potential.
  Creating fixed part of basis set: Ionic, confined, hydrogenic.
 
  Ti                   ion:

  List of free ionic orbitals and eigenvalues:
    n    l      energy [Ha]    energy [eV]
    1    0      -180.346512     -4907.4783
    2    0       -20.558929      -559.4369
    3    0        -3.105104       -84.4942
    4    0        -0.707661       -19.2564
    2    1       -17.189957      -467.7625
    3    1        -2.231709       -60.7279
    3    2        -0.922254       -25.0958


  List of ionic basis orbitals and eigenvalues:
    n    l      energy [Ha]    energy [eV]    outer radius [A]
    4    1        -0.526225       -14.3193       4.592117
    4    0        -0.707344       -19.2478       4.536321

 
  Ti                   hydrogenic:
 
  List of hydrogenic basis orbitals: 
    n    l      effective z      eigenvalue [eV]  inner max. [A]     outer max. [A]     outer radius [A]   
    4    3         8.000000       -54.4222           1.059019           1.059019           4.267343
    3    2         2.700000       -10.7798           1.726925           1.726925           4.592117
 
 
  O                    hydrogenic:
 
  List of hydrogenic basis orbitals: 
    n    l      effective z      eigenvalue [eV]  inner max. [A]     outer max. [A]     outer radius [A]   
    2    1         1.800000       -10.9749           1.164242           1.164242           4.578029
    3    2         7.600000       -87.3180           0.624125           0.624125           3.251020
    3    0         6.400000       -61.9207           0.061167           1.081902           4.001998
 
  Creating atomic-like basis functions for current effective potential.

  Species Ti                  :

  List of atomic basis orbitals and eigenvalues:
    n    l      energy [Ha]    energy [eV]    outer radius [A]
    1    0      -179.482435     -4883.9656       0.490254
    2    0       -19.674169      -535.3614       1.491292
    3    0        -2.270443       -61.7819       4.014314
    4    0        -0.153527        -4.1777       4.592117
    2    1       -16.307552      -443.7511       1.585290
    3    1        -1.407668       -38.3046       4.267343
    3    2        -0.147710        -4.0194       4.536321


  Species O                   :

  List of atomic basis orbitals and eigenvalues:
    n    l      energy [Ha]    energy [eV]    outer radius [A]
    1    0       -18.786109      -511.1960       1.433179
    2    0        -0.872635       -23.7456       4.413171
    2    1        -0.337687        -9.1889       4.522403

  Assembling full basis from fixed parts.
  | Species Ti :   atomic orbital   1 s accepted.
  | Species Ti :   atomic orbital   2 s accepted.
  | Species Ti :   atomic orbital   3 s accepted.
  | Species Ti :    ionic orbital   4 s accepted.
  | Species Ti :   atomic orbital   4 s accepted.
  | Species Ti :   atomic orbital   2 p accepted.
  | Species Ti :   atomic orbital   3 p accepted.
  | Species Ti :    ionic orbital   4 p accepted.
  | Species Ti :   atomic orbital   3 d accepted.
  | Species Ti :    hydro orbital   3 d accepted.
  | Species Ti :    hydro orbital   4 f accepted.
  | Species O :   atomic orbital   1 s accepted.
  | Species O :    hydro orbital   3 s accepted.
  | Species O :   atomic orbital   2 s accepted.
  | Species O :   atomic orbital   2 p accepted.
  | Species O :    hydro orbital   2 p accepted.
  | Species O :    hydro orbital   3 d accepted.
 
  Basis size parameters after reduction:
  | Total number of radial functions:       17
  | Total number of basis functions :      236
 
  Per-task memory consumption for arrays in subroutine allocate_ext:
  |           6.025544MB.
  Testing on-site integration grid accuracy.
  |  Species  Function  <phi|h_atom|phi> (log., in eV)  <phi|h_atom|phi> (rad., in eV)
           1        1              -4883.9655584838              -4883.9621038685
           1        2               -535.3613797651               -535.3613465329
           1        3                -61.7819051437                -61.7819042958
           1        4                 -3.4094615438                 -3.4129466190
           1        5                  6.4168551963                  6.1708882226 ***
           1        6               -443.7510567204               -443.7510565108
           1        7                -38.3045974414                -38.3045972667
           1        8                  0.2435515971                  0.2278546356
           1        9                 -4.0209566986                 -4.0233253492
           1       10                  6.1945918217                  6.1160653784 ***
           1       11                 27.5350749887                 27.5351945928
           2       12               -511.1960429777               -511.1959399133
           2       13                 14.8973166466                 14.8974402823
           2       14                -21.2682165807                -21.2682317485
           2       15                 -9.1890598667                 -9.1892026751
           2       16                  8.1915160719                  8.1720639763
           2       17                 45.8005976646                 45.8005620229
 * Note: Onsite integrals marked "***" above are less accurate than
 * onsite_accuracy_threshold =    0.03000 eV. Usually, this is harmless.
 * When in doubt, tighten the "radial" and/or "radial_multiplier" flags to check.

  Preparing densities etc. for the partition functions (integrals / Hartree potential).

  Preparations completed.
  max(cpu_time)          :      0.308 s.
  Wall clock time (cpu1) :      0.304 s.
------------------------------------------------------------
  After prepare_scf [GB]:   1040.03

  Initializing index lists of integration centers etc. from given atomic structure:
  Mapping all atomic coordinates to central unit cell.

  Initializing the k-points
  Using symmetry for reducing the k-points
  | k-points reduced from:       36 to       20
  | Number of k-points                             :        20
  The eigenvectors in the calculations are COMPLEX.
  | Number of basis functions in the Hamiltonian integrals :      3846
  | Number of basis functions in a single unit cell        :       236
  | Number of centers in hartree potential         :      1223
  | Number of centers in hartree multipole         :       584
  | Number of centers in electron density summation:       462
  | Number of centers in basis integrals           :       495
  | Number of centers in integrals                 :       232
  | Number of centers in hamiltonian               :       464
  | Consuming         26 KiB for k_phase.
  | Number of super-cells (origin) [n_cells]                     :         585
  | Number of super-cells (after PM_index) [n_cells]             :          84
  | Number of super-cells in hamiltonian [n_cells_in_hamiltonian]:          84
  | Size of matrix packed + index [n_hamiltonian_matrix_size] :      281435
  After initialize_bc_dependent_lists [GB]:   1039.69

------------------------------------------------------------
          Begin self-consistency loop: Initialization.

          Date     :  20240819, Time     :  010752.344
------------------------------------------------------------
  Available memory per node after initialize_hartree_non_periodic_ewald [GB]:   1039.69
  | Estimated reciprocal-space cutoff momentum G_max:         2.00186252 bohr^-1 .
  | Reciprocal lattice points for long-range Hartree potential:     348
  Available memory per node after initialize_recip_hartree_potential [GB]:   1039.69
  Using simple linear distribution as default method for k-point parallelism.
  * Using 128 tasks for Scalapack Eigenvalue solver.
  Detailed listing of tasks and assigned k-points:
   Task     0 k-point     1 on RSL-arvutus
   Task     1 k-point     1 on RSL-arvutus
   Task     2 k-point     1 on RSL-arvutus
   Task     3 k-point     1 on RSL-arvutus
   Task     4 k-point     1 on RSL-arvutus
   Task     5 k-point     1 on RSL-arvutus
   Task     6 k-point     1 on RSL-arvutus
   Task     7 k-point     2 on RSL-arvutus
   Task     8 k-point     2 on RSL-arvutus
   Task     9 k-point     2 on RSL-arvutus
   Task    10 k-point     2 on RSL-arvutus
   Task    11 k-point     2 on RSL-arvutus
   Task    12 k-point     2 on RSL-arvutus
   Task    13 k-point     3 on RSL-arvutus
   Task    14 k-point     3 on RSL-arvutus
   Task    15 k-point     3 on RSL-arvutus
   Task    16 k-point     3 on RSL-arvutus
   Task    17 k-point     3 on RSL-arvutus
   Task    18 k-point     3 on RSL-arvutus
   Task    19 k-point     3 on RSL-arvutus
   Task    20 k-point     4 on RSL-arvutus
   Task    21 k-point     4 on RSL-arvutus
   Task    22 k-point     4 on RSL-arvutus
   Task    23 k-point     4 on RSL-arvutus
   Task    24 k-point     4 on RSL-arvutus
   Task    25 k-point     4 on RSL-arvutus
   Task    26 k-point     5 on RSL-arvutus
   Task    27 k-point     5 on RSL-arvutus
   Task    28 k-point     5 on RSL-arvutus
   Task    29 k-point     5 on RSL-arvutus
   Task    30 k-point     5 on RSL-arvutus
   Task    31 k-point     5 on RSL-arvutus
   Task    32 k-point     6 on RSL-arvutus
   Task    33 k-point     6 on RSL-arvutus
   Task    34 k-point     6 on RSL-arvutus
   Task    35 k-point     6 on RSL-arvutus
   Task    36 k-point     6 on RSL-arvutus
   Task    37 k-point     6 on RSL-arvutus
   Task    38 k-point     6 on RSL-arvutus
   Task    39 k-point     7 on RSL-arvutus
   Task    40 k-point     7 on RSL-arvutus
   Task    41 k-point     7 on RSL-arvutus
   Task    42 k-point     7 on RSL-arvutus
   Task    43 k-point     7 on RSL-arvutus
   Task    44 k-point     7 on RSL-arvutus
   Task    45 k-point     8 on RSL-arvutus
   Task    46 k-point     8 on RSL-arvutus
   Task    47 k-point     8 on RSL-arvutus
   Task    48 k-point     8 on RSL-arvutus
   Task    49 k-point     8 on RSL-arvutus
   Task    50 k-point     8 on RSL-arvutus
   Task    51 k-point     8 on RSL-arvutus
   Task    52 k-point     9 on RSL-arvutus
   Task    53 k-point     9 on RSL-arvutus
   Task    54 k-point     9 on RSL-arvutus
   Task    55 k-point     9 on RSL-arvutus
   Task    56 k-point     9 on RSL-arvutus
   Task    57 k-point     9 on RSL-arvutus
   Task    58 k-point    10 on RSL-arvutus
   Task    59 k-point    10 on RSL-arvutus
   Task    60 k-point    10 on RSL-arvutus
   Task    61 k-point    10 on RSL-arvutus
   Task    62 k-point    10 on RSL-arvutus
   Task    63 k-point    10 on RSL-arvutus
   Task    64 k-point    11 on RSL-arvutus
   Task    65 k-point    11 on RSL-arvutus
   Task    66 k-point    11 on RSL-arvutus
   Task    67 k-point    11 on RSL-arvutus
   Task    68 k-point    11 on RSL-arvutus
   Task    69 k-point    11 on RSL-arvutus
   Task    70 k-point    11 on RSL-arvutus
   Task    71 k-point    12 on RSL-arvutus
   Task    72 k-point    12 on RSL-arvutus
   Task    73 k-point    12 on RSL-arvutus
   Task    74 k-point    12 on RSL-arvutus
   Task    75 k-point    12 on RSL-arvutus
   Task    76 k-point    12 on RSL-arvutus
   Task    77 k-point    13 on RSL-arvutus
   Task    78 k-point    13 on RSL-arvutus
   Task    79 k-point    13 on RSL-arvutus
   Task    80 k-point    13 on RSL-arvutus
   Task    81 k-point    13 on RSL-arvutus
   Task    82 k-point    13 on RSL-arvutus
   Task    83 k-point    13 on RSL-arvutus
   Task    84 k-point    14 on RSL-arvutus
   Task    85 k-point    14 on RSL-arvutus
   Task    86 k-point    14 on RSL-arvutus
   Task    87 k-point    14 on RSL-arvutus
   Task    88 k-point    14 on RSL-arvutus
   Task    89 k-point    14 on RSL-arvutus
   Task    90 k-point    15 on RSL-arvutus
   Task    91 k-point    15 on RSL-arvutus
   Task    92 k-point    15 on RSL-arvutus
   Task    93 k-point    15 on RSL-arvutus
   Task    94 k-point    15 on RSL-arvutus
   Task    95 k-point    15 on RSL-arvutus
   Task    96 k-point    16 on RSL-arvutus
   Task    97 k-point    16 on RSL-arvutus
   Task    98 k-point    16 on RSL-arvutus
   Task    99 k-point    16 on RSL-arvutus
   Task   100 k-point    16 on RSL-arvutus
   Task   101 k-point    16 on RSL-arvutus
   Task   102 k-point    16 on RSL-arvutus
   Task   103 k-point    17 on RSL-arvutus
   Task   104 k-point    17 on RSL-arvutus
   Task   105 k-point    17 on RSL-arvutus
   Task   106 k-point    17 on RSL-arvutus
   Task   107 k-point    17 on RSL-arvutus
   Task   108 k-point    17 on RSL-arvutus
   Task   109 k-point    18 on RSL-arvutus
   Task   110 k-point    18 on RSL-arvutus
   Task   111 k-point    18 on RSL-arvutus
   Task   112 k-point    18 on RSL-arvutus
   Task   113 k-point    18 on RSL-arvutus
   Task   114 k-point    18 on RSL-arvutus
   Task   115 k-point    18 on RSL-arvutus
   Task   116 k-point    19 on RSL-arvutus
   Task   117 k-point    19 on RSL-arvutus
   Task   118 k-point    19 on RSL-arvutus
   Task   119 k-point    19 on RSL-arvutus
   Task   120 k-point    19 on RSL-arvutus
   Task   121 k-point    19 on RSL-arvutus
   Task   122 k-point    20 on RSL-arvutus
   Task   123 k-point    20 on RSL-arvutus
   Task   124 k-point    20 on RSL-arvutus
   Task   125 k-point    20 on RSL-arvutus
   Task   126 k-point    20 on RSL-arvutus
   Task   127 k-point    20 on RSL-arvutus
  K-point:     1 Tasks:     7 split into      7 X      1 BLACS grid
  Calculating block size based on n_basis =          236  max_nprow =            7  max_npcol =            2
  ScaLAPACK block size set to:           16
  Allocating        0.158 MB for ovlp_complex
  Allocating        0.158 MB for ham_complex
  Allocating        0.158 MB for eigenvec_complex
  Required Scalapack workspace - INTEGER:            1  REAL:             1  COMPLEX:            1
  Available memory per node after initialize_scalapack [GB]:   1039.68
  Available memory per node after aims_elsi_init_scf [GB]:   1039.68
  Available memory per node after initialize_fixed_grids [GB]:   1039.68
  Partitioning the integration grid into batches with parallel hashing+maxmin method.
  | Number of batches:      866
  | Maximal batch size:     193
  | Minimal batch size:       1
  | Average batch size:      88.517
  | Standard deviation of batch sizes:      27.574

  Integration load balanced across   128 MPI tasks.
  Work distribution over tasks is as follows:
  Task     0 has        593 integration points.
  Task     1 has        589 integration points.
  Task     2 has        597 integration points.
  Task     3 has        585 integration points.
  Task     4 has        602 integration points.
  Task     5 has        630 integration points.
  Task     6 has        548 integration points.
  Task     7 has        625 integration points.
  Task     8 has        588 integration points.
  Task     9 has        600 integration points.
  Task    10 has        602 integration points.
  Task    11 has        643 integration points.
  Task    12 has        599 integration points.
  Task    13 has        609 integration points.
  Task    14 has        559 integration points.
  Task    15 has        597 integration points.
  Task    16 has        546 integration points.
  Task    17 has        646 integration points.
  Task    18 has        597 integration points.
  Task    19 has        596 integration points.
  Task    20 has        602 integration points.
  Task    21 has        599 integration points.
  Task    22 has        594 integration points.
  Task    23 has        605 integration points.
  Task    24 has        583 integration points.
  Task    25 has        643 integration points.
  Task    26 has        548 integration points.
  Task    27 has        629 integration points.
  Task    28 has        602 integration points.
  Task    29 has        585 integration points.
  Task    30 has        597 integration points.
  Task    31 has        588 integration points.
  Task    32 has        588 integration points.
  Task    33 has        585 integration points.
  Task    34 has        547 integration points.
  Task    35 has        548 integration points.
  Task    36 has        587 integration points.
  Task    37 has        592 integration points.
  Task    38 has        595 integration points.
  Task    39 has        642 integration points.
  Task    40 has        645 integration points.
  Task    41 has        639 integration points.
  Task    42 has        644 integration points.
  Task    43 has        587 integration points.
  Task    44 has        628 integration points.
  Task    45 has        600 integration points.
  Task    46 has        595 integration points.
  Task    47 has        597 integration points.
  Task    48 has        629 integration points.
  Task    49 has        629 integration points.
  Task    50 has        611 integration points.
  Task    51 has        548 integration points.
  Task    52 has        601 integration points.
  Task    53 has        631 integration points.
  Task    54 has        591 integration points.
  Task    55 has        594 integration points.
  Task    56 has        552 integration points.
  Task    57 has        605 integration points.
  Task    58 has        603 integration points.
  Task    59 has        605 integration points.
  Task    60 has        601 integration points.
  Task    61 has        550 integration points.
  Task    62 has        599 integration points.
  Task    63 has        547 integration points.
  Task    64 has        642 integration points.
  Task    65 has        601 integration points.
  Task    66 has        642 integration points.
  Task    67 has        590 integration points.
  Task    68 has        641 integration points.
  Task    69 has        643 integration points.
  Task    70 has        645 integration points.
  Task    71 has        546 integration points.
  Task    72 has        584 integration points.
  Task    73 has        547 integration points.
  Task    74 has        555 integration points.
  Task    75 has        628 integration points.
  Task    76 has        600 integration points.
  Task    77 has        548 integration points.
  Task    78 has        591 integration points.
  Task    79 has        630 integration points.
  Task    80 has        633 integration points.
  Task    81 has        596 integration points.
  Task    82 has        604 integration points.
  Task    83 has        593 integration points.
  Task    84 has        594 integration points.
  Task    85 has        589 integration points.
  Task    86 has        602 integration points.
  Task    87 has        596 integration points.
  Task    88 has        605 integration points.
  Task    89 has        586 integration points.
  Task    90 has        589 integration points.
  Task    91 has        595 integration points.
  Task    92 has        598 integration points.
  Task    93 has        600 integration points.
  Task    94 has        592 integration points.
  Task    95 has        546 integration points.
  Task    96 has        626 integration points.
  Task    97 has        629 integration points.
  Task    98 has        593 integration points.
  Task    99 has        591 integration points.
  Task   100 has        600 integration points.
  Task   101 has        630 integration points.
  Task   102 has        594 integration points.
  Task   103 has        597 integration points.
  Task   104 has        643 integration points.
  Task   105 has        587 integration points.
  Task   106 has        593 integration points.
  Task   107 has        558 integration points.
  Task   108 has        595 integration points.
  Task   109 has        563 integration points.
  Task   110 has        631 integration points.
  Task   111 has        594 integration points.
  Task   112 has        626 integration points.
  Task   113 has        591 integration points.
  Task   114 has        588 integration points.
  Task   115 has        554 integration points.
  Task   116 has        601 integration points.
  Task   117 has        602 integration points.
  Task   118 has        595 integration points.
  Task   119 has        594 integration points.
  Task   120 has        586 integration points.
  Task   121 has        640 integration points.
  Task   122 has        626 integration points.
  Task   123 has        599 integration points.
  Task   124 has        594 integration points.
  Task   125 has        599 integration points.
  Task   126 has        647 integration points.
  Task   127 has        598 integration points.
  Available memory per node after partition_grid [GB]:   1039.67
  Initializing partition tables, free-atom densities, potentials, etc. across the integration grid (initialize_grid_storage).
  | initialize_grid_storage: Actual outermost partition radius vs. multipole_radius_free
  | (-- VB: in principle, multipole_radius_free should be larger, hence this output)
  | Species        1: Confinement radius =              4.999999999999999 AA, multipole_radius_free =              5.002391649902235 AA.
  | Species        1: outer_partition_radius set to              5.002391649902235 AA .
  | Species        2: Confinement radius =              4.999999999999999 AA, multipole_radius_free =              5.048384829883283 AA.
  | Species        2: outer_partition_radius set to              5.048384829883283 AA .
  | The sparse table of interatomic distances needs        705.18 kbyte instead of      1960.20 kbyte of memory.
  | Net number of integration points:    76656
  | of which are non-zero points    :    63729
  | Numerical average free-atom electrostatic potential    :     -5.82009398 eV
  Available memory per node after initialize_grid_storage_p1 [GB]:   1039.45
  Renormalizing the initial density to the exact electron count on the 3D integration grid.
  | Initial density: Formal number of electrons (from input files) :     152.0000000000
  | Integrated number of electrons on 3D grid     :     152.0012798343
  | Charge integration error                      :       0.0012798343
  | Normalization factor for density and gradient :       0.9999915801
  Renormalizing the free-atom superposition density to the exact electron count on the 3D integration grid.
  | Formal number of electrons (from input files) :     152.0000000000
  | Integrated number of electrons on 3D grid     :     152.0012798343
  | Charge integration error                      :       0.0012798343
  | Normalization factor for density and gradient :       0.9999915801
  Obtaining max. number of non-zero basis functions in each batch (get_n_compute_maxes).
  | Maximal number of non-zero basis functions:      697 in task     0
  | Maximal number of non-zero basis functions:      673 in task     1
  | Maximal number of non-zero basis functions:      675 in task     2
  | Maximal number of non-zero basis functions:      668 in task     3
  | Maximal number of non-zero basis functions:      665 in task     4
  | Maximal number of non-zero basis functions:      695 in task     5
  | Maximal number of non-zero basis functions:      638 in task     6
  | Maximal number of non-zero basis functions:      659 in task     7
  | Maximal number of non-zero basis functions:      711 in task     8
  | Maximal number of non-zero basis functions:      693 in task     9
  | Maximal number of non-zero basis functions:      650 in task    10
  | Maximal number of non-zero basis functions:      733 in task    11
  | Maximal number of non-zero basis functions:      686 in task    12
  | Maximal number of non-zero basis functions:      682 in task    13
  | Maximal number of non-zero basis functions:      675 in task    14
  | Maximal number of non-zero basis functions:      693 in task    15
  | Maximal number of non-zero basis functions:      684 in task    16
  | Maximal number of non-zero basis functions:      698 in task    17
  | Maximal number of non-zero basis functions:      681 in task    18
  | Maximal number of non-zero basis functions:      648 in task    19
  | Maximal number of non-zero basis functions:      659 in task    20
  | Maximal number of non-zero basis functions:      695 in task    21
  | Maximal number of non-zero basis functions:      709 in task    22
  | Maximal number of non-zero basis functions:      682 in task    23
  | Maximal number of non-zero basis functions:      697 in task    24
  | Maximal number of non-zero basis functions:      654 in task    25
  | Maximal number of non-zero basis functions:      697 in task    26
  | Maximal number of non-zero basis functions:      705 in task    27
  | Maximal number of non-zero basis functions:      704 in task    28
  | Maximal number of non-zero basis functions:      649 in task    29
  | Maximal number of non-zero basis functions:      719 in task    30
  | Maximal number of non-zero basis functions:      641 in task    31
  | Maximal number of non-zero basis functions:      689 in task    32
  | Maximal number of non-zero basis functions:      619 in task    33
  | Maximal number of non-zero basis functions:      727 in task    34
  | Maximal number of non-zero basis functions:      658 in task    35
  | Maximal number of non-zero basis functions:      666 in task    36
  | Maximal number of non-zero basis functions:      684 in task    37
  | Maximal number of non-zero basis functions:      673 in task    38
  | Maximal number of non-zero basis functions:      676 in task    39
  | Maximal number of non-zero basis functions:      679 in task    40
  | Maximal number of non-zero basis functions:      666 in task    41
  | Maximal number of non-zero basis functions:      684 in task    42
  | Maximal number of non-zero basis functions:      647 in task    43
  | Maximal number of non-zero basis functions:      676 in task    44
  | Maximal number of non-zero basis functions:      669 in task    45
  | Maximal number of non-zero basis functions:      642 in task    46
  | Maximal number of non-zero basis functions:      642 in task    47
  | Maximal number of non-zero basis functions:      702 in task    48
  | Maximal number of non-zero basis functions:      637 in task    49
  | Maximal number of non-zero basis functions:      705 in task    50
  | Maximal number of non-zero basis functions:      642 in task    51
  | Maximal number of non-zero basis functions:      693 in task    52
  | Maximal number of non-zero basis functions:      698 in task    53
  | Maximal number of non-zero basis functions:      695 in task    54
  | Maximal number of non-zero basis functions:      672 in task    55
  | Maximal number of non-zero basis functions:      667 in task    56
  | Maximal number of non-zero basis functions:      668 in task    57
  | Maximal number of non-zero basis functions:      664 in task    58
  | Maximal number of non-zero basis functions:      676 in task    59
  | Maximal number of non-zero basis functions:      634 in task    60
  | Maximal number of non-zero basis functions:      634 in task    61
  | Maximal number of non-zero basis functions:      630 in task    62
  | Maximal number of non-zero basis functions:      596 in task    63
  | Maximal number of non-zero basis functions:      680 in task    64
  | Maximal number of non-zero basis functions:      713 in task    65
  | Maximal number of non-zero basis functions:      654 in task    66
  | Maximal number of non-zero basis functions:      678 in task    67
  | Maximal number of non-zero basis functions:      693 in task    68
  | Maximal number of non-zero basis functions:      673 in task    69
  | Maximal number of non-zero basis functions:      689 in task    70
  | Maximal number of non-zero basis functions:      633 in task    71
  | Maximal number of non-zero basis functions:      702 in task    72
  | Maximal number of non-zero basis functions:      632 in task    73
  | Maximal number of non-zero basis functions:      702 in task    74
  | Maximal number of non-zero basis functions:      720 in task    75
  | Maximal number of non-zero basis functions:      644 in task    76
  | Maximal number of non-zero basis functions:      686 in task    77
  | Maximal number of non-zero basis functions:      646 in task    78
  | Maximal number of non-zero basis functions:      694 in task    79
  | Maximal number of non-zero basis functions:      690 in task    80
  | Maximal number of non-zero basis functions:      710 in task    81
  | Maximal number of non-zero basis functions:      687 in task    82
  | Maximal number of non-zero basis functions:      660 in task    83
  | Maximal number of non-zero basis functions:      656 in task    84
  | Maximal number of non-zero basis functions:      642 in task    85
  | Maximal number of non-zero basis functions:      663 in task    86
  | Maximal number of non-zero basis functions:      652 in task    87
  | Maximal number of non-zero basis functions:      641 in task    88
  | Maximal number of non-zero basis functions:      658 in task    89
  | Maximal number of non-zero basis functions:      656 in task    90
  | Maximal number of non-zero basis functions:      702 in task    91
  | Maximal number of non-zero basis functions:      709 in task    92
  | Maximal number of non-zero basis functions:      660 in task    93
  | Maximal number of non-zero basis functions:      720 in task    94
  | Maximal number of non-zero basis functions:      708 in task    95
  | Maximal number of non-zero basis functions:      711 in task    96
  | Maximal number of non-zero basis functions:      681 in task    97
  | Maximal number of non-zero basis functions:      621 in task    98
  | Maximal number of non-zero basis functions:      695 in task    99
  | Maximal number of non-zero basis functions:      702 in task   100
  | Maximal number of non-zero basis functions:      695 in task   101
  | Maximal number of non-zero basis functions:      603 in task   102
  | Maximal number of non-zero basis functions:      711 in task   103
  | Maximal number of non-zero basis functions:      675 in task   104
  | Maximal number of non-zero basis functions:      653 in task   105
  | Maximal number of non-zero basis functions:      661 in task   106
  | Maximal number of non-zero basis functions:      685 in task   107
  | Maximal number of non-zero basis functions:      651 in task   108
  | Maximal number of non-zero basis functions:      676 in task   109
  | Maximal number of non-zero basis functions:      688 in task   110
  | Maximal number of non-zero basis functions:      677 in task   111
  | Maximal number of non-zero basis functions:      642 in task   112
  | Maximal number of non-zero basis functions:      716 in task   113
  | Maximal number of non-zero basis functions:      681 in task   114
  | Maximal number of non-zero basis functions:      706 in task   115
  | Maximal number of non-zero basis functions:      678 in task   116
  | Maximal number of non-zero basis functions:      688 in task   117
  | Maximal number of non-zero basis functions:      689 in task   118
  | Maximal number of non-zero basis functions:      716 in task   119
  | Maximal number of non-zero basis functions:      674 in task   120
  | Maximal number of non-zero basis functions:      733 in task   121
  | Maximal number of non-zero basis functions:      677 in task   122
  | Maximal number of non-zero basis functions:      703 in task   123
  | Maximal number of non-zero basis functions:      675 in task   124
  | Maximal number of non-zero basis functions:      672 in task   125
  | Maximal number of non-zero basis functions:      703 in task   126
  | Maximal number of non-zero basis functions:      696 in task   127
  Available memory per node after get_n_compute_maxes_p1 [GB]:   1039.31
  Available memory per node after allocate_matrices [GB]:   1039.31
  Available memory per node after init_comm_sparse_local_matrix_scalapack [GB]:   1039.31
  Integrating Hamiltonian matrix: batch-based integration.
  Time summed over all CPUs for integration: real work        7.488 s, elapsed        8.758 s
  Available memory per node after integrate hamiltonian matrix [GB]:   1037.28
  Integrating overlap matrix.
  Time summed over all CPUs for integration: real work        3.347 s, elapsed        3.963 s
  Available memory per node after integrate ovlp matrix [GB]:   1036.71
  Available memory per node after ASI_callbacks invoke [GB]:   1036.71
  Deallocating overlap matrix.
  Available memory per node after save_overlap_scalapack [GB]:   1036.71

  Updating Kohn-Sham eigenvalues and eigenvectors using ELSI and the ELPA eigensolver.
  Singularity check in k-point 1 (analysis for other k-points may follow below):
  Overlap matrix is not singular
  | Lowest and highest eigenvalues :  0.3375E-03,  0.7833E+01
  Finished singularity check of overlap matrix
  | Time :     0.011 s
  Starting ELPA eigensolver
  Finished Cholesky decomposition
  | Time :     0.003 s
  Finished transformation to standard eigenproblem
  | Time :     0.005 s
  Finished solving standard eigenproblem
  | Time :     0.013 s
  Finished back-transformation of eigenvectors
  | Time :     0.001 s

  Obtaining occupation numbers and electronic chemical potential using ELSI.
  | Note that, for insulating systems, the printed 'chemical potential' value is not uniquely defined.
  | It can be anywhere in the energy gap, as long as it correctly separates occupied and unoccupied states.
  | In systems with a gap, the physically relevant chemical potential is the VBM or HOMO.

  | Chemical potential (Fermi level):    -7.84445264 eV
  Available memory per node after advance_KS_solution [GB]:   1036.65
  Writing Kohn-Sham eigenvalues.
  K-point:       1 at    0.000000    0.000000    0.000000 (in units of recip. lattice)

  State    Occupation    Eigenvalue [Ha]    Eigenvalue [eV]
      1       2.00000        -179.564251        -4886.19188
      2       2.00000        -179.543289        -4885.62146
      3       2.00000        -179.486986        -4884.08938
      4       2.00000        -179.486683        -4884.08114
      5       2.00000         -19.765067         -537.83483
      6       2.00000         -19.741704         -537.19910
[...]
  | Electronic free energy        :       -4026.81148110 Ha     -109575.11552118 eV

  Derived energy quantities:
  | Kinetic energy                :        4051.93792231 Ha      110258.84077409 eV
  | Electrostatic energy          :       -7838.98095745 Ha     -213309.52492140 eV
  | Energy correction for multipole
  | error in Hartree potential    :           0.05921032 Ha           1.61119469 eV
  | Sum of eigenvalues per atom                           :       -5445.23767017 eV
  | Total energy (T->0) per atom                          :       -9131.25905661 eV  <-- do not rely on this value for anything but (periodic) metals
  | Electronic free energy per atom                       :       -9131.25962676 eV
  Preliminary charge convergence reached. Turning off preconditioner.


  Self-consistency convergence accuracy:
  | Change of charge density      :  0.1040E-04
  | Change of unmixed KS density  :  0.1625E-05
  | Change of sum of eigenvalues  :  0.4711E-03 eV
  | Change of total energy        :  0.3679E-07 eV

  Writing Kohn-Sham eigenvalues.
  K-point:       1 at    0.000000    0.000000    0.000000 (in units of recip. lattice)

  State    Occupation    Eigenvalue [Ha]    Eigenvalue [eV]
      1       2.00000        -180.742670        -4918.25828
      2       2.00000        -180.727567        -4917.84731
      3       2.00000        -180.614727        -4914.77677
      4       2.00000        -180.562949        -4913.36783
      5       2.00000         -20.136107         -547.93136
      6       2.00000         -20.119773         -547.48689
      7       2.00000         -20.018133         -544.72111
      8       2.00000         -19.965746         -543.29559
      9       2.00000         -19.199362         -522.44123
     10       2.00000         -19.199360         -522.44118
     11       2.00000         -19.176786         -521.82689
     12       2.00000         -19.176786         -521.82689
     13       2.00000         -19.107747         -519.94824
     14       2.00000         -19.061667         -518.69435
     15       2.00000         -19.022061         -517.61660
     16       2.00000         -18.962656         -516.00012
     17       2.00000         -16.622975         -452.33416
     18       2.00000         -16.622738         -452.32773
     19       2.00000         -16.616192         -452.14960
     20       2.00000         -16.606015         -451.87266
     21       2.00000         -16.604122         -451.82115
     22       2.00000         -16.603033         -451.79152
     23       2.00000         -16.515528         -449.41038
     24       2.00000         -16.496036         -448.87997
     25       2.00000         -16.494730         -448.84444
     26       2.00000         -16.463341         -447.99029
     27       2.00000         -16.448395         -447.58361
     28       2.00000         -16.436341         -447.25559
     29       2.00000          -2.496294          -67.92762
     30       2.00000          -2.460365          -66.94994
     31       2.00000          -2.457182          -66.86333
     32       2.00000          -2.437048          -66.31546
     33       2.00000          -1.805533          -49.13106
     34       2.00000          -1.790108          -48.71132
     35       2.00000          -1.650397          -44.90960
     36       2.00000          -1.554729          -42.30633
     37       2.00000          -1.544781          -42.03562
     38       2.00000          -1.532145          -41.69179
     39       2.00000          -1.522601          -41.43207
     40       2.00000          -1.514576          -41.21370
     41       2.00000          -1.514136          -41.20174
     42       2.00000          -1.481535          -40.31462
     43       2.00000          -1.478057          -40.21999
     44       2.00000          -1.475963          -40.16300
     45       2.00000          -1.094682          -29.78782
     46       2.00000          -1.062026          -28.89920
     47       2.00000          -0.961547          -26.16504
     48       2.00000          -0.924943          -25.16898
     49       2.00000          -0.891698          -24.26434
     50       2.00000          -0.863417          -23.49477
     51       2.00000          -0.844723          -22.98608
     52       2.00000          -0.838624          -22.82011
     53       2.00000          -0.693660          -18.87546
     54       2.00000          -0.631194          -17.17566
     55       2.00000          -0.601372          -16.36416
     56       2.00000          -0.592590          -16.12520
     57       2.00000          -0.581371          -15.81990
     58       2.00000          -0.570545          -15.52532
     59       2.00000          -0.501001          -13.63294
     60       2.00000          -0.493293          -13.42318
     61       2.00000          -0.457693          -12.45446
     62       2.00000          -0.440433          -11.98478
     63       2.00000          -0.432668          -11.77348
     64       2.00000          -0.427947          -11.64504
     65       2.00000          -0.409218          -11.13538
     66       2.00000          -0.394123          -10.72463
     67       2.00000          -0.370818          -10.09046
     68       2.00000          -0.360727           -9.81588
     69       2.00000          -0.306337           -8.33585
     70       2.00000          -0.293343           -7.98226
     71       2.00000          -0.280831           -7.64180
     72       2.00000          -0.275470           -7.49593
     73       2.00000          -0.264966           -7.21010
     74       2.00000          -0.263311           -7.16505
     75       2.00000          -0.237237           -6.45555
     76       2.00000          -0.233143           -6.34416
     77       1.94803          -0.225540           -6.13726
     78       0.00000          -0.211617           -5.75839
     79       0.00000          -0.194997           -5.30613
     80       0.00000          -0.187220           -5.09450
     81       0.00000          -0.172069           -4.68225
     82       0.00000          -0.171462           -4.66572
     83       0.00000          -0.171242           -4.65974
     84       0.00000          -0.169394           -4.60944
     85       0.00000          -0.168379           -4.58183
     86       0.00000          -0.142463           -3.87661
     87       0.00000          -0.138764           -3.77596
     88       0.00000          -0.132712           -3.61128
     89       0.00000          -0.092554           -2.51854
     90       0.00000          -0.077435           -2.10712
     91       0.00000          -0.032567           -0.88619
     92       0.00000          -0.013072           -0.35570
     93       0.00000          -0.010581           -0.28793
     94       0.00000           0.010168            0.27669
     95       0.00000           0.042721            1.16250
     96       0.00000           0.045872            1.24823
     97       0.00000           0.053570            1.45773
     98       0.00000           0.053995            1.46927
     99       0.00000           0.062749            1.70750
    100       0.00000           0.120214            3.27119
    101       0.00000           0.148579            4.04305
    102       0.00000           0.150825            4.10416
    103       0.00000           0.195445            5.31833
    104       0.00000           0.227175            6.18174
    105       0.00000           0.244959            6.66566
    106       0.00000           0.294844            8.02311
    107       0.00000           0.306449            8.33890
    108       0.00000           0.328708            8.94461
    109       0.00000           0.331576            9.02263
    110       0.00000           0.382640           10.41217
    111       0.00000           0.397440           10.81488
    112       0.00000           0.416793           11.34151
    113       0.00000           0.424269           11.54496
    114       0.00000           0.436909           11.88889
    115       0.00000           0.444201           12.08733
    116       0.00000           0.467653           12.72549
    117       0.00000           0.484035           13.17126
    118       0.00000           0.496496           13.51034
    119       0.00000           0.513981           13.98613
    120       0.00000           0.537626           14.62956
    121       0.00000           0.584239           15.89795
    122       0.00000           0.627860           17.08495

  What follows are estimated values for band gap, HOMO, LUMO, etc.
  | They are estimated on a discrete k-point grid and not necessarily exact.
  | For converged numbers, create a DOS and/or band structure plot on a denser k-grid.

  Highest occupied state (VBM) at     -6.10401932 eV (relative to internal zero)
  | Occupation number:      1.68416662
  | K-point:       8 at    0.166667    0.666667    0.000000 (in units of recip. lattice)

  Lowest unoccupied state (CBM) at    -6.06013709 eV (relative to internal zero)
  | Occupation number:      0.81178820
  | K-point:      17 at    0.500000    0.833333    0.000000 (in units of recip. lattice)

  ESTIMATED overall HOMO-LUMO gap:      0.04388222 eV between HOMO at k-point 8 and LUMO at k-point 17
  | This appears to be an indirect band gap.
  | Smallest direct gap :      0.11139841 eV for k_point 7 at    0.166667    0.500000    0.000000 (in units of recip. lattice)
  However, this system has fractional occupation numbers. Since we use a finite k-point grid,
  this material is metallic within the approximate finite broadening function (occupation_type)
  applied to determine the occupation numbers.

  | Chemical Potential                          :    -6.06855590 eV
  | Note that, for insulating systems, the printed 'chemical potential' value is not uniquely defined.
  | It can be anywhere in the energy gap, as long as it correctly separates occupied and unoccupied states.
  | In systems with a gap, the physically relevant chemical potential is the VBM or HOMO.

  Self-consistency cycle converged.


------------------------------------------------------------
  End self-consistency iteration #    83       :  max(cpu_time)    wall_clock(cpu1)
  | Time for this iteration                     :        0.295 s           0.295 s
  | Charge density update                       :        0.000 s           0.000 s
  | Density mixing                              :        0.131 s           0.131 s
  | Hartree multipole update                    :        0.002 s           0.001 s
  | Hartree multipole summation                 :        0.028 s           0.028 s
  | Integration                                 :        0.113 s           0.113 s
  | Solution of K.-S. eqns.                     :        0.021 s           0.021 s
  | Total energy evaluation                     :        0.000 s           0.000 s

  Partial memory accounting:
  | Current value for overall tracked memory usage:
  |   Minimum:        4.000 MB (on task  16)
  |   Maximum:        4.197 MB (on task  64)
  |   Average:        4.090 MB
  | Peak value for overall tracked memory usage:
  |   Minimum:       16.434 MB (on task  63 after allocating wave)
  |   Maximum:       19.683 MB (on task  11 after allocating wave)
  |   Average:       18.302 MB
  | Largest tracked array allocation so far:
  |   Minimum:        2.710 MB (hamiltonian_shell on task  63)
  |   Maximum:        4.099 MB (hamiltonian_shell on task  11)
  |   Average:        3.499 MB
  Note:  These values currently only include a subset of arrays which are explicitly tracked.
  The "true" memory usage will be greater.
------------------------------------------------------------

  Energy and forces in a compact form:
  | Total energy uncorrected      :         -0.109575101837555E+06 eV
  | Total energy corrected        :         -0.109575108679366E+06 eV  <-- do not rely on this value for anything but (periodic) metals
  | Electronic free energy        :         -0.109575115521177E+06 eV

  ------------------------------------ 
  Start decomposition of the XC Energy 
  ------------------------------------ 
  X and C from original XC functional choice 
  Hartree-Fock Energy :          0.000000000 Ha              0.000000000 eV
  X Energy            :       -233.672588779 Ha          -6358.554660368 eV
  C Energy            :         -6.095354313 Ha           -165.863029876 eV
  XC Energy w/o HF    :       -239.767943092 Ha          -6524.417690244 eV
  Total XC Energy     :       -239.767943092 Ha          -6524.417690244 eV
  ------------------------------------ 
  LDA X and C from self-consistent density 
  X Energy LDA        :       -215.687771587 Ha          -5869.162884602 eV
  C Energy LDA        :        -11.784990256 Ha           -320.685901175 eV
  ------------------------------------ 
  End decomposition of the XC Energy 
  ------------------------------------ 

------------------------------------------------------------

------------------------------------------------------------------------------
  Final output of selected total energy values:

  The following output summarizes some interesting total energy values
  at the end of a run (AFTER all relaxation, molecular dynamics, etc.).

  | Total energy of the DFT / Hartree-Fock s.c.f. calculation      :        -109575.101837555 eV
  | Final zero-broadening corrected energy (caution - metals only) :        -109575.108679366 eV
  | For reference only, the value of 1 Hartree used in FHI-aims is :             27.211384500 eV
  | For reference only, the overall average (free atom contribution
  | + realspace contribution) of the electrostatic potential after
  | s.c.f. convergence is                                          :             -5.480474883 eV

  Before relying on these values, please be sure to understand exactly which
  total energy value is referred to by a given number. Different objects may
  all carry the same name 'total energy'. Definitions:

  Total energy of the DFT / Hartree-Fock s.c.f. calculation:
  | Note that this energy does not include ANY quantities calculated after the
  | s.c.f. cycle, in particular not ANY RPA, MP2, etc. many-body perturbation terms.

  Final zero-broadening corrected energy:
  | For metallic systems only, a broadening of the occupation numbers at the Fermi
  | level can be extrapolated back to zero broadening by an electron-gas inspired
  | formula. For all systems that are not real metals, this value can be
  | meaningless and should be avoided.

------------------------------------------------------------------------------
  Methods described in the following list of references were used in this FHI-aims run.
  If you publish the results, please make sure to cite these reference if they apply.
  FHI-aims is an academic code, and for our developers (often, Ph.D. students
  and postdocs), scientific credit in the community is essential.
  Thank you for helping us!

  For any use of FHI-aims, please cite:

    Volker Blum, Ralf Gehrke, Felix Hanke, Paula Havu, Ville Havu,
    Xinguo Ren, Karsten Reuter, and Matthias Scheffler
    'Ab initio molecular simulations with numeric atom-centered orbitals'
    Computer Physics Communications 180, 2175-2196 (2009)
    http://doi.org/10.1016/j.cpc.2009.06.022


  For the 'Strongly Constrained and Appropriately Normed' (SCAN)
  meta-GGA functional, please cite:

    Jianwei Sun and Adrienn Ruzsinszky and JohnP. Perdew,
    'Strongly Constrained and Appropriately Normed Semilocal Density Functional'
     Physical Review Letters 115, 036402 (2015).


  The provided symmetry information was generated with SPGlib:

    Atsushi Togo, Yusuke Seto, Dimitar Pashov
    SPGlib 1.7.3 obtained from http://spglib.sourceforge.net
    Licence: New BSD license
    Copyright (C) 2008 Atsushi Togo


  The ELSI infrastructure was used in your run to solve the Kohn-Sham electronic structure.
  Please check out https://wordpress.elsi-interchange.org to learn more.
  If scalability is important for your project, please acknowledge ELSI by citing:

    V. W-z. Yu, F. Corsetti, A. Garcia, W. P. Huhn, M. Jacquelin, W. Jia,
    B. Lange, L. Lin, J. Lu, W. Mi, A. Seifitokaldani, A. Vazquez-Mayagoitia,
    C. Yang, H. Yang, and V. Blum
    'ELSI: A unified software interface for Kohn-Sham electronic structure solvers'
    Computer Physics Communications 222, 267-285 (2018).
    http://doi.org/10.1016/j.cpc.2017.09.007


  For the real-space grid partitioning and parallelization used in this calculation, please cite:

    Ville Havu, Volker Blum, Paula Havu, and Matthias Scheffler,
    'Efficient O(N) integration for all-electron electronic structure calculation'
    'using numerically tabulated basis functions'
    Journal of Computational Physics 228, 8367-8379 (2009).
    http://doi.org/10.1016/j.jcp.2009.08.008

  Of course, there are many other important community references, e.g., those cited in the
  above references. Our list is limited to references that describe implementations in the
  FHI-aims code. The reason is purely practical (length of this list) - please credit others as well.

   One or more s.c.f. cycles took more than 50 s.c.f. iterations.
   It might be worth adjusting your convergence settings. For example,
   metals need a larger broadening and a smaller "charge_mix_param" value than semiconductors.

------------------------------------------------------------
          Leaving FHI-aims.
          Date     :  20240819, Time     :  010829.931

          Computational steps:
          | Number of self-consistency cycles          :           83
          | Number of SCF (re)initializations          :            1

          Detailed time accounting                     :  max(cpu_time)    wall_clock(cpu1)
          | Total time                                  :       38.011 s          38.016 s
          | Preparation time                            :        0.308 s           0.304 s
          | Boundary condition initalization            :        0.053 s           0.053 s
          | Grid partitioning                           :        0.028 s           0.028 s
          | Preloading free-atom quantities on grid     :        0.039 s           0.039 s
          | Free-atom superposition energy              :        0.004 s           0.004 s
          | Total time for integrations                 :        9.475 s           9.477 s
          | Total time for solution of K.-S. equations  :        1.781 s           1.786 s
          | Total time for density update               :       13.023 s          13.021 s
          | Total time for mixing & preconditioning     :       10.707 s          10.703 s
          | Total time for Hartree multipole update     :        0.144 s           0.149 s
          | Total time for Hartree multipole sum        :        2.280 s           2.280 s
          | Total time for total energy evaluation      :        0.013 s           0.007 s
          | Total time for scaled ZORA corrections      :        0.000 s           0.000 s

          Partial memory accounting:
          | Residual value for overall tracked memory usage across tasks:     0.000000 MB (should be 0.000000 MB)
          | Peak values for overall tracked memory usage:
          |   Minimum:       16.434 MB (on task  63 after allocating wave)
          |   Maximum:       19.683 MB (on task  11 after allocating wave)
          |   Average:       18.302 MB
          | Largest tracked array allocation:
          |   Minimum:        2.710 MB (hamiltonian_shell on task  63)
          |   Maximum:        4.099 MB (hamiltonian_shell on task  11)
          |   Average:        3.499 MB
          Note:  These values currently only include a subset of arrays which are explicitly tracked.
          The "true" memory usage will be greater.

          Have a nice day.
------------------------------------------------------------
