------------------------------------------------------------
          Invoking FHI-aims ...

          When using FHI-aims, please cite the following reference:

            Volker Blum, Ralf Gehrke, Felix Hanke, Paula Havu,
            Ville Havu, Xinguo Ren, Karsten Reuter, and Matthias Scheffler,
            'Ab Initio Molecular Simulations with Numeric Atom-Centered Orbitals',
            Computer Physics Communications 180, 2175-2196 (2009)

          In addition, many other developments in FHI-aims are likely important for
          your particular application. If so, please cite them. A partial list of references
          is written at the end of this file. Thank you for giving credit to the authors
          of these developments.

          For general information about FHI-aims please find us at

            https://fhi-aims.org

          Online tutorials can be found at

            https://fhi-aims-club.gitlab.io/tutorials/tutorials-overview/

          For any questions about FHI-aims, please visit our slack channel at

            https://fhi-aims.slack.com

          and our main development and support site at

            https://aims-git.rz-berlin.mpg.de .

          The latter site, in particular, has a wiki to collect information, as well
          as an issue tracker to log discussions, suggest improvements, and report issues
          or bugs. https://aims-git.rz-berlin.mpg.de is also the main development site
          of the project and all new and updated code versions can be obtained there.
          Please send an email to aims-coordinators@fhi-berlin.mpg.de and we will add
          you to these sites. They are for you and everyone is welcome there.

------------------------------------------------------------



  Date     :  20250311, Time     :  204659.531
  Time zero on CPU 1             :   0.381611000000000E+00  s.
  Internal wall clock time zero  :           510958019.531  s.

  FHI-aims created a unique identifier for this run for later identification
  aims_uuid : FDEC1203-E5C7-476F-A3BC-4A679691A889

  Build configuration of the current instance of FHI-aims
  -------------------------------------------------------
  FHI-aims version      : 240605
  Commit number         : b001b2e18
  CMake host system     : Linux-6.5.0-41-generic
  CMake version         : 3.22.1
  Fortran compiler      : /opt/intel/oneapi/mpi/2021.12/bin/mpiifort (IntelLLVM) version 2024.1.0
  Fortran compiler flags: -fc=ifx -O3 -ip -fp-model precise
  C compiler            : /opt/intel/oneapi/mpi/2021.12/bin/mpiicc (IntelLLVM) version 2024.1.0
  C compiler flags      : -cc=icx -O3 -ip -fp-model precise -std=gnu99
  C++ compiler          : /opt/intel/oneapi/mpi/2021.12/bin/mpiicpc (IntelLLVM) version 2024.1.0
  C++ compiler flags    : -cxx=icpx -O3 -ip -fp-model precise -std=c++11
  HIP compiler          :
  HIP compiler flags    :
  HIP GPU arch          :
  Using MPI
  Using ScaLAPACK
  Using LibXC
  Using i-PI
  Using RLSY
  Linking against: /opt/intel/oneapi/mkl/2024.1/lib/intel64/libmkl_intel_lp64.so
                   /opt/intel/oneapi/mkl/2024.1/lib/intel64/libmkl_sequential.so
                   /opt/intel/oneapi/mkl/2024.1/lib/intel64/libmkl_core.so
                   /opt/intel/oneapi/mkl/2024.1/lib/intel64/libmkl_blacs_intelmpi_lp64.so
                   /opt/intel/oneapi/mkl/2024.1/lib/intel64/libmkl_scalapack_lp64.so
                   /opt/intel/oneapi/mkl/2024.1/lib/intel64/libmkl_core.so

  Using       32 parallel tasks.
  Task        0 on host RSL-arvutus reporting.
  Task        1 on host RSL-arvutus reporting.
  Task        2 on host RSL-arvutus reporting.
  Task        3 on host RSL-arvutus reporting.
  Task        4 on host RSL-arvutus reporting.
  Task        5 on host RSL-arvutus reporting.
  Task        6 on host RSL-arvutus reporting.
  Task        7 on host RSL-arvutus reporting.
  Task        8 on host RSL-arvutus reporting.
  Task        9 on host RSL-arvutus reporting.
  Task       10 on host RSL-arvutus reporting.
  Task       11 on host RSL-arvutus reporting.
  Task       12 on host RSL-arvutus reporting.
  Task       13 on host RSL-arvutus reporting.
  Task       14 on host RSL-arvutus reporting.
  Task       15 on host RSL-arvutus reporting.
  Task       16 on host RSL-arvutus reporting.
  Task       17 on host RSL-arvutus reporting.
  Task       18 on host RSL-arvutus reporting.
  Task       19 on host RSL-arvutus reporting.
  Task       20 on host RSL-arvutus reporting.
  Task       21 on host RSL-arvutus reporting.
  Task       22 on host RSL-arvutus reporting.
  Task       23 on host RSL-arvutus reporting.
  Task       24 on host RSL-arvutus reporting.
  Task       25 on host RSL-arvutus reporting.
  Task       26 on host RSL-arvutus reporting.
  Task       27 on host RSL-arvutus reporting.
  Task       28 on host RSL-arvutus reporting.
  Task       29 on host RSL-arvutus reporting.
  Task       30 on host RSL-arvutus reporting.
  Task       31 on host RSL-arvutus reporting.

  Memory overcommitment is allowed on your operating system.

  Obtaining array dimensions for all initial allocations:
  
  -----------------------------------------------------------------------
  Parsing control.in (first pass over file, find array dimensions only).
  The contents of control.in will be repeated verbatim below
  unless switched off by setting 'verbatim_writeout .false.' .
  in the first line of control.in .
  -----------------------------------------------------------------------
  
    xc              pbe
    relativistic    zora scalar 1.0e-12
    k_grid          8 8 1
  
    charge	  1.0
    output          Mulliken
  
  
  ################################################################################
  #
  #  FHI-aims code project
  #  VB, Fritz-Haber Institut, 2009
  #
  #  Suggested "light" defaults for Ti atom (to be pasted into control.in file)
  #  Be sure to double-check any results obtained with these settings for post-processing,
  #  e.g., with the "tight" defaults and larger basis sets.
  #
  ################################################################################
    species        Ti
  #     global species definitions
      nucleus             22
      mass                47.867
  #
      l_hartree           4
  #
      cut_pot             3.5          1.5  1.0
      basis_dep_cutoff    1e-4
  #
      radial_base         48 5.0
      radial_multiplier   1
      angular_grids       specified
        division   0.5171   50
        division   0.9824  110
        division   1.2917  194
        division   1.4940  302
  #      division   1.6934  434
  #      division   1.8425  590
  #      division   2.1901  770
  #      division   2.2896  974
  #      division   2.8244 1202
  #      outer_grid  974
        outer_grid  302
  ################################################################################
  #
  #  Definition of "minimal" basis
  #
  ################################################################################
  #     valence basis states
      valence      4  s   2.
      valence      3  p   6.
      valence      3  d   2.
  #     ion occupancy
      ion_occ      4  s   1.
      ion_occ      3  p   6.
      ion_occ      3  d   1.
  ################################################################################
  #
  #  Suggested additional basis functions. For production calculations,
  #  uncomment them one after another (the most important basis functions are
  #  listed first).
  #
  #  Constructed for dimers: 1.6 A, 1.85 A, 2.5 A, 3.25 A, 4.25 A
  #
  ################################################################################
  #  "First tier" - improvements: -396.25 meV to -19.41 meV
       hydro 4 f 8
       hydro 3 d 2.7
       ionic 4 p auto
  #     hydro 5 g 11.6
       ionic 4 s auto
  #  "Second tier" - improvements: -16.30 meV to -2.03 meV
  #     hydro 3 d 4.4
  #     hydro 6 h 16
  #     hydro 4 f 9.4
  #     hydro 4 p 4.5
  #     hydro 1 s 0.5
  #  "Third tier" - improvements: -6.28 meV to -0.37 meV
  #     hydro 4 d 6.4
  #     hydro 4 f 10
  #     hydro 5 g 12
  #     hydro 2 p 1.7
  #     hydro 6 h 16.4
  #     hydro 4 s 3.8
  #  Further basis functions: -0.45 meV and smaller improvements
  #     hydro 3 d 8.8
  #     hydro 5 p 18
  #     hydro 4 f 22.4
  #     hydro 5 f 7.2  # -0.16 meV
  #     hydro 3 d 2.1  # -0.11 meV
  #     hydro 5 g 7.4  # -0.09 meV
  
  
  ################################################################################
  #
  #  FHI-aims code project
  #  VB, Fritz-Haber Institut, 2009
  #
  #  Suggested "light" defaults for O atom (to be pasted into control.in file)
  #  Be sure to double-check any results obtained with these settings for post-processing,
  #  e.g., with the "tight" defaults and larger basis sets.
  #
  ################################################################################
    species        O
  #     global species definitions
      nucleus             8
      mass                15.9994
  #
      l_hartree           4
  #
      cut_pot             3.5  1.5  1.0
      basis_dep_cutoff    1e-4
  #
      radial_base         36 5.0
      radial_multiplier   1
       angular_grids specified
        division   0.2659   50
        division   0.4451  110
        division   0.6052  194
        division   0.7543  302
  #      division   0.8014  434
  #      division   0.8507  590
  #      division   0.8762  770
  #      division   0.9023  974
  #      division   1.2339 1202
  #      outer_grid 974
        outer_grid 302
  ################################################################################
  #
  #  Definition of "minimal" basis
  #
  ################################################################################
  #     valence basis states
      valence      2  s   2.
      valence      2  p   4.
  #     ion occupancy
      ion_occ      2  s   1.
      ion_occ      2  p   3.
  ################################################################################
  #
  #  Suggested additional basis functions. For production calculations,
  #  uncomment them one after another (the most important basis functions are
  #  listed first).
  #
  #  Constructed for dimers: 1.0 A, 1.208 A, 1.5 A, 2.0 A, 3.0 A
  #
  ################################################################################
  #  "First tier" - improvements: -699.05 meV to -159.38 meV
       hydro 2 p 1.8
       hydro 3 d 7.6
       hydro 3 s 6.4
  #  "Second tier" - improvements: -49.91 meV to -5.39 meV
  #     hydro 4 f 11.6
  #     hydro 3 p 6.2
  #     hydro 3 d 5.6
  #     hydro 5 g 17.6
  #     hydro 1 s 0.75
  #  "Third tier" - improvements: -2.83 meV to -0.50 meV
  #     ionic 2 p auto
  #     hydro 4 f 10.8
  #     hydro 4 d 4.7
  #     hydro 2 s 6.8
  #  "Fourth tier" - improvements: -0.40 meV to -0.12 meV
  #     hydro 3 p 5
  #     hydro 3 s 3.3
  #     hydro 5 g 15.6
  #     hydro 4 f 17.6
  #     hydro 4 d 14
  # Further basis functions - -0.08 meV and below
  #     hydro 3 s 2.1
  #     hydro 4 d 11.6
  #     hydro 3 p 16
  #     hydro 2 s 17.2
  ################################################################################
  #
  #  FHI-aims code project
  #  VB, Fritz-Haber Institut, 2009
  #
  #  Suggested "light" defaults for F atom (to be pasted into control.in file)
  #  Be sure to double-check any results obtained with these settings for post-processing,
  #  e.g., with the "tight" defaults and larger basis sets.
  #
  ################################################################################
    species        F
  #     global species definitions
      nucleus             9
      mass                18.9984032
  #
      l_hartree           4
  #
      cut_pot             3.5  1.5  1.0
      basis_dep_cutoff    1e-4
  #
      radial_base         37 5.0
      radial_multiplier   1
      angular_grids specified
        division   0.4014  110
        division   0.5291  194
        division   0.6019  302
  #      division   0.6814  434
  #      division   0.7989  590
  #      division   0.8965  770
  #      division   1.3427  974
  #      outer_grid   974
        outer_grid   302
  ################################################################################
  #
  #  Definition of "minimal" basis
  #
  ################################################################################
  #     valence basis states
      valence      2  s   2.
      valence      2  p   5.
  #     ion occupancy
      ion_occ      2  s   1.
      ion_occ      2  p   4.
  ################################################################################
  #
  #  Suggested additional basis functions. For production calculations,
  #  uncomment them one after another (the most important basis functions are
  #  listed first).
  #
  #  Constructed for dimers: 1.2 A, 1.418 A, 1.75 A, 2.25 A, 3.25 A
  #
  ################################################################################
  #  "First tier" - improvements: -149.44 meV to -45.88 meV
       hydro 2 p 1.7
       hydro 3 d 7.4
       hydro 3 s 6.8
  #  "Second tier" - improvements: -12.96 meV to -1.56 meV
  #     hydro 4 f 11.2
  #     ionic 2 p auto
  #     hydro 1 s 0.75
  #     hydro 4 d 8.8
  #     hydro 5 g 16.8
  #  "Third tier" - improvements: -0.58 meV to -0.05 meV
  #     hydro 3 p 6.2
  #     hydro 3 s 3.2
  #     hydro 4 f 9.6
  #     hydro 3 s 19.6
  #     hydro 4 d 8.6
  #     hydro 5 g 14.4
  # Further basis functions: -0.05 meV and below
  #     hydro 3 p 4.2
  ################################################################################
  #
  #  FHI-aims code project
  #  VB, Fritz-Haber Institut, 2009
  #
  #  Suggested "light" defaults for H atom (to be pasted into control.in file)
  #  Be sure to double-check any results obtained with these settings for post-processing,
  #  e.g., with the "tight" defaults and larger basis sets.
  #
  ################################################################################
    species        H
  #     global species definitions
      nucleus             1
      mass                1.00794
  #
      l_hartree           4
  #
      cut_pot             3.5  1.5  1.0
      basis_dep_cutoff    1e-4
  #
      radial_base         24 5.0
      radial_multiplier   1
      angular_grids       specified
        division   0.2421   50
        division   0.3822  110
        division   0.4799  194
        division   0.5341  302
  #      division   0.5626  434
  #      division   0.5922  590
  #      division   0.6542  770
  #      division   0.6868 1202
  #      outer_grid  770
        outer_grid  302
  ################################################################################
  #
  #  Definition of "minimal" basis
  #
  ################################################################################
  #     valence basis states
      valence      1  s   1.
  #     ion occupancy
      ion_occ      1  s   0.5
  ################################################################################
  #
  #  Suggested additional basis functions. For production calculations,
  #  uncomment them one after another (the most important basis functions are
  #  listed first).
  #
  #  Basis constructed for dimers: 0.5 A, 0.7 A, 1.0 A, 1.5 A, 2.5 A
  #
  ################################################################################
  #  "First tier" - improvements: -1014.90 meV to -62.69 meV
       hydro 2 s 2.1
       hydro 2 p 3.5
  #  "Second tier" - improvements: -12.89 meV to -1.83 meV
  #     hydro 1 s 0.85
  #     hydro 2 p 3.7
  #     hydro 2 s 1.2
  #     hydro 3 d 7
  #  "Third tier" - improvements: -0.25 meV to -0.12 meV
  #     hydro 4 f 11.2
  #     hydro 3 p 4.8
  #     hydro 4 d 9
  #     hydro 3 s 3.2
  
  -----------------------------------------------------------------------
  Completed first pass over input file control.in .
  -----------------------------------------------------------------------
  
  
  -----------------------------------------------------------------------
  Parsing geometry.in (first pass over file, find array dimensions only).
  The contents of geometry.in will be repeated verbatim below
  unless switched off by setting 'verbatim_writeout .false.' .
  in the first line of geometry.in .
  -----------------------------------------------------------------------
  
  lattice_vector 6.566127 0.000000 0.000000
  lattice_vector 0.000000 5.945766 0.000000
  lattice_vector 0.000000 0.000000 22.332457
  
  atom 6.566088 0.000000 8.231677 O
  atom 2.006320 1.486442 9.508423 O
  atom 3.283044 0.000000 9.508446 Ti
  atom 6.566107 1.486442 9.508446 Ti
  atom 4.559775 1.486442 9.508468 O
  atom 0.000007 0.000000 10.785214 O
  atom 3.283004 0.000000 11.514905 O
  atom 5.289363 1.486442 12.791652 O
  atom 6.566094 0.000000 12.791674 Ti
  atom 3.283031 1.486442 12.791674 Ti
  atom 1.276691 1.486442 12.791719 O
  atom 3.283050 0.000000 14.068443 O
  atom 6.566088 2.972883 8.231677 O
  atom 2.006320 4.459325 9.508423 O
  atom 3.283044 2.972883 9.508446 Ti
  atom 6.566107 4.459325 9.508446 Ti
  atom 4.559775 4.459325 9.508468 O
  atom 0.000007 2.972883 10.785214 O
  atom 3.283004 2.972883 11.514905 O
  atom 5.289363 4.459325 12.791652 O
  atom 6.566094 2.972883 12.791674 Ti
  atom 3.283031 4.459325 12.791674 Ti
  atom 1.276691 4.459325 12.791719 O
  atom 3.283050 2.972883 14.068443 F
  atom 3.283050 2.972883 15.068443 H
  atom 3.283050 0.000000 15.068443 H
  atom 6.566088 0.000000 7.231677 H
  atom 6.566088 2.972883 7.231677 H
  atom 6.566088 2.972883 14.791674 O
  atom 6.566088 0.000000 14.791674 O
  atom 6.566088 2.972883 15.791674 H
  atom 6.566088 0.000000 15.791674 H
  atom 3.283050 2.972883 7.508446 O
  atom 3.283050 0.000000 7.508446 O
  atom 3.283050 2.972883 6.508446 H
  atom 3.283050 0.000000 6.508446 H
  
  -----------------------------------------------------------------------
  Completed first pass over input file geometry.in .
  -----------------------------------------------------------------------
  

  Basic array size parameters:
  | Number of species                 :        4
  | Number of atoms                   :       36
  | Number of lattice vectors         :        3
  | Max. basis fn. angular momentum   :        3
  | Max. atomic/ionic basis occupied n:        4
  | Max. number of basis fn. types    :        3
  | Max. radial fns per species/type  :        7
  | Max. logarithmic grid size        :     1383
  | Max. radial integration grid size :       48
  | Max. angular integration grid size:      302
  | Max. angular grid division number :        8
  | Radial grid for Hartree potential :     1383
  | Number of spin channels           :        1

------------------------------------------------------------
          Reading file control.in.
------------------------------------------------------------
  XC: Using PBE gradient-corrected functionals.
  Scalar relativistic treatment of kinetic energy: ZORA.
  Threshold value for ZORA:   0.100000E-11
  Found k-point grid:         8         8         1
  Charged system requested: Charge =   0.100000E+01.
  Mulliken charge analysis will be performed and summarised to the main output.
  Full Mulliken charge analysis will be written to file 'Mulliken.out'.
 
  Reading configuration options for species Ti                  .
  | Found nuclear charge :  22.0000
  | Found atomic mass :    47.8670000000000      amu
  | Found l_max for Hartree potential  :   4
  | Found cutoff potl. onset [A], width [A], scale factor :    3.50000    1.50000    1.00000
  | Threshold for basis-dependent cutoff potential is   0.100000E-03
  | Found data for basic radial integration grid :    48 points, outermost radius =    5.000 A
  | Found multiplier for basic radial grid :   1
  | Found angular grid specification: user-specified.
  | Specified grid contains     5 separate shells.
  | Check grid settings after all constraints further below.
  | Found free-atom valence shell :  4 s   2.000
  | Found free-atom valence shell :  3 p   6.000
  | Found free-atom valence shell :  3 d   2.000
  | Found free-ion valence shell :  4 s   1.000
  | Found free-ion valence shell :  3 p   6.000
  | Found free-ion valence shell :  3 d   1.000
  | Found hydrogenic basis function :  4 f   8.000
  | Found hydrogenic basis function :  3 d   2.700
  | Found ionic basis function :  4 p , default cutoff radius.
  | Found ionic basis function :  4 s , default cutoff radius.
 | Encountered keyword species, ending the description of species Ti                  .
  Species Ti                  : Missing cutoff potential type.
  Defaulting to exp(1/x)/(1-x)^2 type cutoff potential.
  Species Ti: No 'logarithmic' tag. Using default grid for free atom:
  | Default logarithmic grid data [bohr] : 0.1000E-03 0.1000E+03 0.1012E+01
  | Will include ionic basis functions of  2.0-fold positive Ti                   ion.
  Species Ti: On-site basis accuracy parameter (for Gram-Schmidt orthonormalisation) not specified.
  Using default value basis_acc =  0.1000000E-03.
  Species Ti                  : Using default innermost maximum threshold i_radial=  2 for radial functions.
  Species Ti                  : Default cutoff onset for free atom density etc. : 0.35000000E+01 AA.
  Species Ti                  : Basic radial grid will be enhanced according to radial_multiplier =   1, to contain    48 grid points.
 
  Reading configuration options for species O                   .
  | Found nuclear charge :   8.0000
  | Found atomic mass :    15.9994000000000      amu
  | Found l_max for Hartree potential  :   4
  | Found cutoff potl. onset [A], width [A], scale factor :    3.50000    1.50000    1.00000
  | Threshold for basis-dependent cutoff potential is   0.100000E-03
  | Found data for basic radial integration grid :    36 points, outermost radius =    5.000 A
  | Found multiplier for basic radial grid :   1
  | Found angular grid specification: user-specified.
  | Specified grid contains     5 separate shells.
  | Check grid settings after all constraints further below.
  | Found free-atom valence shell :  2 s   2.000
  | Found free-atom valence shell :  2 p   4.000
  | Found free-ion valence shell :  2 s   1.000
  | Found free-ion valence shell :  2 p   3.000
  | Found hydrogenic basis function :  2 p   1.800
  | Found hydrogenic basis function :  3 d   7.600
  | Found hydrogenic basis function :  3 s   6.400
 | Encountered keyword species, ending the description of species O                   .
  Species O                   : Missing cutoff potential type.
  Defaulting to exp(1/x)/(1-x)^2 type cutoff potential.
  Species O : No 'logarithmic' tag. Using default grid for free atom:
  | Default logarithmic grid data [bohr] : 0.1000E-03 0.1000E+03 0.1012E+01
  Species O : On-site basis accuracy parameter (for Gram-Schmidt orthonormalisation) not specified.
  Using default value basis_acc =  0.1000000E-03.
  Species O                   : Using default innermost maximum threshold i_radial=  2 for radial functions.
  Species O                   : Default cutoff onset for free atom density etc. : 0.35000000E+01 AA.
  Species O                   : Basic radial grid will be enhanced according to radial_multiplier =   1, to contain    36 grid points.
 
  Reading configuration options for species F                   .
  | Found nuclear charge :   9.0000
  | Found atomic mass :    18.9984032000000      amu
  | Found l_max for Hartree potential  :   4
  | Found cutoff potl. onset [A], width [A], scale factor :    3.50000    1.50000    1.00000
  | Threshold for basis-dependent cutoff potential is   0.100000E-03
  | Found data for basic radial integration grid :    37 points, outermost radius =    5.000 A
  | Found multiplier for basic radial grid :   1
  | Found angular grid specification: user-specified.
  | Specified grid contains     4 separate shells.
  | Check grid settings after all constraints further below.
  | Found free-atom valence shell :  2 s   2.000
  | Found free-atom valence shell :  2 p   5.000
  | Found free-ion valence shell :  2 s   1.000
  | Found free-ion valence shell :  2 p   4.000
  | Found hydrogenic basis function :  2 p   1.700
  | Found hydrogenic basis function :  3 d   7.400
  | Found hydrogenic basis function :  3 s   6.800
 | Encountered keyword species, ending the description of species F                   .
  Species F                   : Missing cutoff potential type.
  Defaulting to exp(1/x)/(1-x)^2 type cutoff potential.
  Species F : No 'logarithmic' tag. Using default grid for free atom:
  | Default logarithmic grid data [bohr] : 0.1000E-03 0.1000E+03 0.1012E+01
  Species F : On-site basis accuracy parameter (for Gram-Schmidt orthonormalisation) not specified.
  Using default value basis_acc =  0.1000000E-03.
  Species F                   : Using default innermost maximum threshold i_radial=  2 for radial functions.
  Species F                   : Default cutoff onset for free atom density etc. : 0.35000000E+01 AA.
  Species F                   : Basic radial grid will be enhanced according to radial_multiplier =   1, to contain    37 grid points.
 
  Reading configuration options for species H                   .
  | Found nuclear charge :   1.0000
  | Found atomic mass :    1.00794000000000      amu
  | Found l_max for Hartree potential  :   4
  | Found cutoff potl. onset [A], width [A], scale factor :    3.50000    1.50000    1.00000
  | Threshold for basis-dependent cutoff potential is   0.100000E-03
  | Found data for basic radial integration grid :    24 points, outermost radius =    5.000 A
  | Found multiplier for basic radial grid :   1
  | Found angular grid specification: user-specified.
  | Specified grid contains     5 separate shells.
  | Check grid settings after all constraints further below.
  | Found free-atom valence shell :  1 s   1.000
  | Found free-ion valence shell :  1 s   0.500
  | Found hydrogenic basis function :  2 s   2.100
  | Found hydrogenic basis function :  2 p   3.500
  Species H                   : Missing cutoff potential type.
  Defaulting to exp(1/x)/(1-x)^2 type cutoff potential.
  Species H : No 'logarithmic' tag. Using default grid for free atom:
  | Default logarithmic grid data [bohr] : 0.1000E-03 0.1000E+03 0.1012E+01
  Species H : On-site basis accuracy parameter (for Gram-Schmidt orthonormalisation) not specified.
  Using default value basis_acc =  0.1000000E-03.
  Species H                   : Using default innermost maximum threshold i_radial=  2 for radial functions.
  Species H                   : Default cutoff onset for free atom density etc. : 0.35000000E+01 AA.
  Species H                   : Basic radial grid will be enhanced according to radial_multiplier =   1, to contain    24 grid points.
 
  Finished reading input file 'control.in'.
 
------------------------------------------------------------


------------------------------------------------------------
          Reading geometry description geometry.in.
------------------------------------------------------------
  | The smallest distance between any two atoms is         1.00000000 AA.
  | The first atom of this pair is atom number                     33 .
  | The second atom of this pair is atom number                    35 .
  | Wigner-Seitz cell of the first atom image           0     0     0 .
  | (The Wigner-Seitz cell of the second atom is 0 0 0  by definition.)

  Symmetry information by spglib:
  | Precision set to  0.1E-04
  | Number of Operations  : 2
  | Space group           : 6
  | International         : Pm      /op
  | Schoenflies           : Cs^1
  Input structure read successfully.
  The structure contains       36 atoms,  and a total of        344.000 electrons.

  Input geometry:
  | Unit cell:
  |        6.56612700        0.00000000        0.00000000
  |        0.00000000        5.94576600        0.00000000
  |        0.00000000        0.00000000       22.33245700
  | Atomic structure:
  |       Atom                x [A]            y [A]            z [A]
  |    1: Species O             6.56608800        0.00000000        8.23167700
  |    2: Species O             2.00632000        1.48644200        9.50842300
  |    3: Species Ti            3.28304400        0.00000000        9.50844600
  |    4: Species Ti            6.56610700        1.48644200        9.50844600
  |    5: Species O             4.55977500        1.48644200        9.50846800
  |    6: Species O             0.00000700        0.00000000       10.78521400
  |    7: Species O             3.28300400        0.00000000       11.51490500
  |    8: Species O             5.28936300        1.48644200       12.79165200
  |    9: Species Ti            6.56609400        0.00000000       12.79167400
  |   10: Species Ti            3.28303100        1.48644200       12.79167400
  |   11: Species O             1.27669100        1.48644200       12.79171900
  |   12: Species O             3.28305000        0.00000000       14.06844300
  |   13: Species O             6.56608800        2.97288300        8.23167700
  |   14: Species O             2.00632000        4.45932500        9.50842300
  |   15: Species Ti            3.28304400        2.97288300        9.50844600
  |   16: Species Ti            6.56610700        4.45932500        9.50844600
  |   17: Species O             4.55977500        4.45932500        9.50846800
  |   18: Species O             0.00000700        2.97288300       10.78521400
  |   19: Species O             3.28300400        2.97288300       11.51490500
  |   20: Species O             5.28936300        4.45932500       12.79165200
  |   21: Species Ti            6.56609400        2.97288300       12.79167400
  |   22: Species Ti            3.28303100        4.45932500       12.79167400
  |   23: Species O             1.27669100        4.45932500       12.79171900
  |   24: Species F             3.28305000        2.97288300       14.06844300
  |   25: Species H             3.28305000        2.97288300       15.06844300
  |   26: Species H             3.28305000        0.00000000       15.06844300
  |   27: Species H             6.56608800        0.00000000        7.23167700
  |   28: Species H             6.56608800        2.97288300        7.23167700
  |   29: Species O             6.56608800        2.97288300       14.79167400
  |   30: Species O             6.56608800        0.00000000       14.79167400
  |   31: Species H             6.56608800        2.97288300       15.79167400
  |   32: Species H             6.56608800        0.00000000       15.79167400
  |   33: Species O             3.28305000        2.97288300        7.50844600
  |   34: Species O             3.28305000        0.00000000        7.50844600
  |   35: Species H             3.28305000        2.97288300        6.50844600
  |   36: Species H             3.28305000        0.00000000        6.50844600

  Lattice parameters for 3D lattice (in Angstroms) :     6.566127    5.945766   22.332457
  Angle(s) between unit vectors (in degrees)       :    90.000000   90.000000   90.000000


  Quantities derived from the lattice vectors (in Angstrom^-1):
  | Reciprocal lattice vector 1:  0.956909  0.000000  0.000000
  | Reciprocal lattice vector 2:  0.000000  1.056750  0.000000
  | Reciprocal lattice vector 3:  0.000000  0.000000  0.281348
  | Unit cell volume                               :   0.871874E+03  Angstrom^3

  Fractional coordinates:
                         L1                L2                L3
       atom_frac         0.99999406        0.00000000        0.36859702  O
       atom_frac         0.30555608        0.25000008        0.42576699  O
       atom_frac         0.49999703        0.00000000        0.42576802  Ti
       atom_frac         0.99999695        0.25000008        0.42576802  Ti
       atom_frac         0.69443905        0.25000008        0.42576901  O
       atom_frac         0.00000107        0.00000000        0.48293898  O
       atom_frac         0.49999094        0.00000000        0.51561299  O
       atom_frac         0.80555295        0.25000008        0.57278301  O
       atom_frac         0.99999497        0.00000000        0.57278400  Ti
       atom_frac         0.49999505        0.25000008        0.57278400  Ti
       atom_frac         0.19443593        0.25000008        0.57278601  O
       atom_frac         0.49999794        0.00000000        0.62995500  O
       atom_frac         0.99999406        0.50000000        0.36859702  O
       atom_frac         0.30555608        0.75000008        0.42576699  O
       atom_frac         0.49999703        0.50000000        0.42576802  Ti
       atom_frac         0.99999695        0.75000008        0.42576802  Ti
       atom_frac         0.69443905        0.75000008        0.42576901  O
       atom_frac         0.00000107        0.50000000        0.48293898  O
       atom_frac         0.49999094        0.50000000        0.51561299  O
       atom_frac         0.80555295        0.75000008        0.57278301  O
       atom_frac         0.99999497        0.50000000        0.57278400  Ti
       atom_frac         0.49999505        0.75000008        0.57278400  Ti
       atom_frac         0.19443593        0.75000008        0.57278601  O
       atom_frac         0.49999794        0.50000000        0.62995500  F
       atom_frac         0.49999794        0.50000000        0.67473288  H
       atom_frac         0.49999794        0.00000000        0.67473288  H
       atom_frac         0.99999406        0.00000000        0.32381914  H
       atom_frac         0.99999406        0.50000000        0.32381914  H
       atom_frac         0.99999406        0.50000000        0.66233975  O
       atom_frac         0.99999406        0.00000000        0.66233975  O
       atom_frac         0.99999406        0.50000000        0.70711763  H
       atom_frac         0.99999406        0.00000000        0.70711763  H
       atom_frac         0.49999794        0.50000000        0.33621227  O
       atom_frac         0.49999794        0.00000000        0.33621227  O
       atom_frac         0.49999794        0.50000000        0.29143439  H
       atom_frac         0.49999794        0.00000000        0.29143439  H

  Slab Identifier: This is Z-oriented slab and maximum thickness of the vacuum is: 13.049 Angstrom.
 
  Finished reading input file 'geometry.in'.
 

 
  Consistency checks for stacksize environment parameter are next.
 
  | Maximum stacksize for task 0: unlimited
  | Maximum stacksize for task 1: unlimited
  | Maximum stacksize for task 2: unlimited
  | Maximum stacksize for task 3: unlimited
  | Maximum stacksize for task 4: unlimited
  | Maximum stacksize for task 5: unlimited
  | Maximum stacksize for task 6: unlimited
  | Maximum stacksize for task 7: unlimited
  | Maximum stacksize for task 8: unlimited
  | Maximum stacksize for task 9: unlimited
  | Maximum stacksize for task 10: unlimited
  | Maximum stacksize for task 11: unlimited
  | Maximum stacksize for task 12: unlimited
  | Maximum stacksize for task 13: unlimited
  | Maximum stacksize for task 14: unlimited
  | Maximum stacksize for task 15: unlimited
  | Maximum stacksize for task 16: unlimited
  | Maximum stacksize for task 17: unlimited
  | Maximum stacksize for task 18: unlimited
  | Maximum stacksize for task 19: unlimited
  | Maximum stacksize for task 20: unlimited
  | Maximum stacksize for task 21: unlimited
  | Maximum stacksize for task 22: unlimited
  | Maximum stacksize for task 23: unlimited
  | Maximum stacksize for task 24: unlimited
  | Maximum stacksize for task 25: unlimited
  | Maximum stacksize for task 26: unlimited
  | Maximum stacksize for task 27: unlimited
  | Maximum stacksize for task 28: unlimited
  | Maximum stacksize for task 29: unlimited
  | Maximum stacksize for task 30: unlimited
  | Maximum stacksize for task 31: unlimited
  | Current stacksize for task 0: unlimited
  | Current stacksize for task 1: unlimited
  | Current stacksize for task 2: unlimited
  | Current stacksize for task 3: unlimited
  | Current stacksize for task 4: unlimited
  | Current stacksize for task 5: unlimited
  | Current stacksize for task 6: unlimited
  | Current stacksize for task 7: unlimited
  | Current stacksize for task 8: unlimited
  | Current stacksize for task 9: unlimited
  | Current stacksize for task 10: unlimited
  | Current stacksize for task 11: unlimited
  | Current stacksize for task 12: unlimited
  | Current stacksize for task 13: unlimited
  | Current stacksize for task 14: unlimited
  | Current stacksize for task 15: unlimited
  | Current stacksize for task 16: unlimited
  | Current stacksize for task 17: unlimited
  | Current stacksize for task 18: unlimited
  | Current stacksize for task 19: unlimited
  | Current stacksize for task 20: unlimited
  | Current stacksize for task 21: unlimited
  | Current stacksize for task 22: unlimited
  | Current stacksize for task 23: unlimited
  | Current stacksize for task 24: unlimited
  | Current stacksize for task 25: unlimited
  | Current stacksize for task 26: unlimited
  | Current stacksize for task 27: unlimited
  | Current stacksize for task 28: unlimited
  | Current stacksize for task 29: unlimited
  | Current stacksize for task 30: unlimited
  | Current stacksize for task 31: unlimited
 
  Consistency checks for the contents of control.in are next.
 
  MPI_IN_PLACE appears to work with this MPI implementation.
  | Keeping use_mpi_in_place .true. (see manual).
  Target number of points in a grid batch is not set. Defaulting to  100
  Method for grid partitioning is not set. Defaulting to parallel hash+maxmin partitioning.
  Batch size limit is not set. Defaulting to    200
  By default, will store active basis functions for each batch.
  If in need of memory, prune_basis_once .false. can be used to disable this option.
  communication_type for Hartree potential was not specified.
  Defaulting to calc_hartree .
  Defaulting to Pulay charge density mixer.
  Pulay mixer: Number of relevant iterations not set.
  Defaulting to    8 iterations.
  Pulay mixer: Number of initial linear mixing iterations not set.
  Defaulting to    0 iterations.
  Work space size for distributed Hartree potential not set.
  Defaulting to   0.200000E+03 MB.
  Mixing parameter for charge density mixing has not been set.
  Using default: charge_mix_param =     0.0500.
  The mixing parameter will be adjusted in iteration number     2 of each s.c.f. cycle (i.e., each geometry step).
  Algorithm-dependent basis array size parameters:
  | n_max_pulay                         :        8
  Maximum number of self-consistency iterations not provided.
  Presetting  1000 iterations.
  Presetting      1001 iterations before the initial mixing cycle
  is restarted anyway using the sc_init_iter criterion / keyword.
  Presetting a factor      1.000 between actual scf density residual
  and density convergence criterion sc_accuracy_rho below which sc_init_iter
  takes no effect.
 * No s.c.f. convergence criteria (sc_accuracy_*) were provided in control.in.
 * The run will proceed with a reasonable default guess, but please check whether.
 * the s.c.f. cycles seem to take too much or too little time.
  Calculation of forces was not defined in control.in. No forces will be calculated.
  Geometry relaxation not requested: no relaxation will be performed.
 * Notice: The s.c.f. convergence criterion sc_accuracy_rho was not provided.
 * We used to stop in this case, and ask the user to provide reasonable
 * scf convergence criteria. However, this led some users to employ criteria
 * that led to extremely long run times, e.g., for simple relaxation.
 * We now preset a default value for sc_accuracy_rho if it is not set.
 * You may still wish to check if this setting is too tight or too loose for your needs.
 * Based on n_atoms and forces and force-correction status, FHI-aims chose sc_accuracy_rho =  0.244949E-05 .
  No accuracy limit for integral partition fn. given. Defaulting to  0.1000E-14.
  No threshold value for u(r) in integrations given. Defaulting to  0.1000E-05.
  No occupation type (smearing scheme) given. Defaulting to Gaussian broadening, width =  0.1000E-01 eV.
  The width will be adjusted in iteration number     2 of each s.c.f. cycle (i.e., each geometry step).
  No accuracy for occupation numbers given. Defaulting to  0.1000E-12.
  No threshold value for occupation numbers given. Defaulting to  0.0000E+00.
  No accuracy for fermi level given. Defaulting to  0.1000E-19.
  Maximum # of iterations to find E_F not set. Defaulting to  200.
  Preferred method for the eigenvalue solver ('KS_method') not specified in 'control.in'.
  Defaulting to serial version, LAPACK (via ELSI), since more k-points than CPUs available.
  Will not use alltoall communication since running on < 1024 CPUs.
  Threshold for basis singularities not set.
  Default threshold for basis singularities:  0.1000E-04
  partition_type (choice of integration weights) for integrals was not specified.
  | Using a version of the partition function of Stratmann and coworkers ('stratmann_sparse').
  | At each grid point, the set of atoms used to build the partition table is smoothly restricted to
  | only those atoms whose free-atom density would be non-zero at that grid point.
  Partitioning for Hartree potential was not defined. Using partition_type for integrals.
  | Adjusted default value of keyword multip_moments_threshold to:       0.10000000E-11
  | This value may affect high angular momentum components of the Hartree potential in periodic systems.
  Spin handling was not defined in control.in. Defaulting to unpolarized case.
  Angular momentum expansion for Kerker preconditioner not set explicitly.
  | Using default value of   0
  No explicit requirement for turning off preconditioner.
  | By default, it will be turned off when the charge convergence reaches
  | sc_accuracy_rho  =   0.244949E-05
  No special mixing parameter while Kerker preconditioner is on.
  Using default: charge_mix_param =     0.0500.
  No q(lm)/r^(l+1) cutoff set for long-range Hartree potential.
  | Using default value of  0.100000E-09 .
  | Verify using the multipole_threshold keyword.
  Defaulting to new monopole extrapolation.
  Density update method: automatic selection selected.
  Using density matrix based charge density update.
  Using density matrix based charge density update.
  Using packed matrix style: index .
  Defaulting to use time-reversal symmetry for k-point grid.
  Charge integration errors on the 3D integration grid will be compensated
  by explicit normalization and distribution of residual charges.
  Use the "compensate_multipole_errors" flag to change this behaviour.
  Set 'collect_eigenvectors' to be '.true.' for all serial calculations. This is mandatory.
  Set 'collect_eigenvectors' to be '.true.' for KS_method lapack_fast and serial.
  Found potential conflicts with setting 'use_local_index' for this calculation. Will not set it.
 
  Consistency checks for the contents of geometry.in are next.
 

  Range separation radius for Ewald summation (hartree_convergence_parameter):      4.16785308 bohr.
 * Warning: Initial charge and total charge of the system are inconsistent.
 * Selected charge in control.in:     1.0000* Sum of initial charges in geometry.in:     0.0000
  Number of empty states per atom not set in control.in - providing a guess from actual geometry.
  | Total number of empty states used during s.c.f. cycle:      116
  If you use a very high smearing, use empty_states (per atom!) in control.in to increase this value.

  Structure-dependent array size parameters: 
  | Maximum number of distinct radial functions  :       26
  | Maximum number of basis functions            :      568
  | Number of Kohn-Sham states (occupied + empty):      288
------------------------------------------------------------
  After read_input_data [GB]:   1031.02

  Performing system and environment tests:
  *** Environment variable OMP_NUM_THREADS is not set
  *** For performance reasons you might want to set it to 1
  | Checking for ScaLAPACK...
  | Testing pdtran()...
  | All pdtran() tests passed.
  After prepare_system [GB]:   1030.90

------------------------------------------------------------
          Preparing all fixed parts of the calculation.
------------------------------------------------------------
  Determining machine precision:
    2.225073858507201E-308
  Setting up grids for atomic and cluster calculations.

  Creating wave function, potential, and density for free atoms.
  Runtime choices for atomic solver:
  | atomic solver xc        : PBE
  | compute density gradient: 1
  | compute kinetic density : F

  Species: Ti

  List of occupied orbitals and eigenvalues:
    n    l              occ      energy [Ha]    energy [eV]
    1    0           2.0000      -179.959082     -4896.9358
    2    0           2.0000       -19.727662      -536.8170
    3    0           2.0000        -2.283029       -62.1244
    4    0           2.0000        -0.148384        -4.0377
    2    1           6.0000       -16.317278      -444.0157
    3    1           6.0000        -1.409348       -38.3503
    3    2           2.0000        -0.139340        -3.7916


  Species: O

  List of occupied orbitals and eigenvalues:
    n    l              occ      energy [Ha]    energy [eV]
    1    0           2.0000       -18.926989      -515.0296
    2    0           2.0000        -0.880247       -23.9527
    2    1           4.0000        -0.331514        -9.0210


  Species: F

  List of occupied orbitals and eigenvalues:
    n    l              occ      energy [Ha]    energy [eV]
    1    0           2.0000       -24.399611      -663.9472
    2    0           2.0000        -1.098702       -29.8972
    2    1           5.0000        -0.408210       -11.1080


  Species: H

  List of occupied orbitals and eigenvalues:
    n    l              occ      energy [Ha]    energy [eV]
    1    0           1.0000        -0.237593        -6.4652


  Adding cutoff potential to free-atom effective potential.
  Creating fixed part of basis set: Ionic, confined, hydrogenic.
 
  Ti                   ion:

  List of free ionic orbitals and eigenvalues:
    n    l      energy [Ha]    energy [eV]
    1    0      -180.819616     -4920.3521
    2    0       -20.608761      -560.7929
    3    0        -3.115729       -84.7833
    4    0        -0.697188       -18.9715
    2    1       -17.196209      -467.9327
    3    1        -2.231296       -60.7167
    3    2        -0.911363       -24.7995


  List of ionic basis orbitals and eigenvalues:
    n    l      energy [Ha]    energy [eV]    outer radius [A]
    4    1        -0.517739       -14.0884       4.592117
    4    0        -0.696824       -18.9615       4.536321

 
  Ti                   hydrogenic:
 
  List of hydrogenic basis orbitals: 
    n    l      effective z      eigenvalue [eV]  inner max. [A]     outer max. [A]     outer radius [A]   
    4    3         8.000000       -54.4222           1.059019           1.059019           4.267343
    3    2         2.700000       -10.7798           1.726925           1.726925           4.592117
 
 
  O                    hydrogenic:
 
  List of hydrogenic basis orbitals: 
    n    l      effective z      eigenvalue [eV]  inner max. [A]     outer max. [A]     outer radius [A]   
    2    1         1.800000       -10.9749           1.164242           1.164242           4.578029
    3    2         7.600000       -87.3180           0.624125           0.624125           3.251020
    3    0         6.400000       -61.9207           0.061167           1.081902           4.001998
 
 
  F                    hydrogenic:
 
  List of hydrogenic basis orbitals: 
    n    l      effective z      eigenvalue [eV]  inner max. [A]     outer max. [A]     outer radius [A]   
    2    1         1.700000        -9.7616           1.243167           1.243167           4.598524
    3    2         7.400000       -82.7828           0.642437           0.642437           3.305741
    3    0         6.800000       -69.9026           0.057798           1.022307           3.781556
 
 
  H                    hydrogenic:
 
  List of hydrogenic basis orbitals: 
    n    l      effective z      eigenvalue [eV]  inner max. [A]     outer max. [A]     outer radius [A]   
    2    0         2.100000       -14.9728           0.193243           1.317208           4.583499
    2    1         3.500000       -41.6669           0.602369           0.602369           3.723403
 
  Creating atomic-like basis functions for current effective potential.

  Species Ti                  :

  List of atomic basis orbitals and eigenvalues:
    n    l      energy [Ha]    energy [eV]    outer radius [A]
    1    0      -179.959082     -4896.9358       0.490254
    2    0       -19.727662      -536.8170       1.491292
    3    0        -2.283029       -62.1244       4.014314
    4    0        -0.148384        -4.0377       4.592117
    2    1       -16.317278      -444.0157       1.585290
    3    1        -1.409348       -38.3503       4.267343
    3    2        -0.139340        -3.7916       4.536321


  Species O                   :

  List of atomic basis orbitals and eigenvalues:
    n    l      energy [Ha]    energy [eV]    outer radius [A]
    1    0       -18.926989      -515.0296       1.415765
    2    0        -0.880247       -23.9527       4.413171
    2    1        -0.331514        -9.0210       4.522403


  Species F                   :

  List of atomic basis orbitals and eigenvalues:
    n    l      energy [Ha]    energy [eV]    outer radius [A]
    1    0       -24.399611      -663.9472       1.258458
    2    0        -1.098702       -29.8972       4.325857
    2    1        -0.408210       -11.1080       4.487453


  Species H                   :

  List of atomic basis orbitals and eigenvalues:
    n    l      energy [Ha]    energy [eV]    outer radius [A]
    1    0        -0.237593        -6.4652       4.527807

  Assembling full basis from fixed parts.
  | Species Ti :   atomic orbital   1 s accepted.
  | Species Ti :   atomic orbital   2 s accepted.
  | Species Ti :   atomic orbital   3 s accepted.
  | Species Ti :    ionic orbital   4 s accepted.
  | Species Ti :   atomic orbital   4 s accepted.
  | Species Ti :   atomic orbital   2 p accepted.
  | Species Ti :   atomic orbital   3 p accepted.
  | Species Ti :    ionic orbital   4 p accepted.
  | Species Ti :   atomic orbital   3 d accepted.
  | Species Ti :    hydro orbital   3 d accepted.
  | Species Ti :    hydro orbital   4 f accepted.
  | Species O :   atomic orbital   1 s accepted.
  | Species O :    hydro orbital   3 s accepted.
  | Species O :   atomic orbital   2 s accepted.
  | Species O :   atomic orbital   2 p accepted.
  | Species O :    hydro orbital   2 p accepted.
  | Species O :    hydro orbital   3 d accepted.
  | Species F :   atomic orbital   1 s accepted.
  | Species F :    hydro orbital   3 s accepted.
  | Species F :   atomic orbital   2 s accepted.
  | Species F :   atomic orbital   2 p accepted.
  | Species F :    hydro orbital   2 p accepted.
  | Species F :    hydro orbital   3 d accepted.
  | Species H :   atomic orbital   1 s accepted.
  | Species H :    hydro orbital   2 s accepted.
  | Species H :    hydro orbital   2 p accepted.
 
  Basis size parameters after reduction:
  | Total number of radial functions:       26
  | Total number of basis functions :      568
 
  Per-task memory consumption for arrays in subroutine allocate_ext:
  |           6.921200MB.
  Testing on-site integration grid accuracy.
  |  Species  Function  <phi|h_atom|phi> (log., in eV)  <phi|h_atom|phi> (rad., in eV)
           1        1              -4896.9357674450              -4896.9322838106
           1        2               -536.8170048508               -536.8169722776
           1        3                -62.1243896260                -62.1243889401
           1        4                 -3.2653235630                 -3.2692838824
           1        5                  6.7987747276                  6.5460721871 ***
           1        6               -444.0157161949               -444.0157165643
           1        7                -38.3503235548                -38.3503234985
           1        8                  0.2923930877                  0.2745948114
           1        9                 -3.7933400649                 -3.7959244171
           1       10                  6.3288803616                  6.2510614935 ***
           1       11                 27.8451455747                 27.8452636415
           2       12               -515.0295626295               -515.0294562869
           2       13                 15.1698434419                 15.1699322205
           2       14                -21.6038822678                -21.6039118108
           2       15                 -9.0211123393                 -9.0212703513
           2       16                  8.3047696391                  8.2854840999
           2       17                 45.8428042125                 45.8427461223
           3       18               -663.9471986398               -663.9470363156
           3       19                 16.8514011578                 16.8512525340
           3       20                -28.4490593856                -28.4490661455
           3       21                -11.1080115307                -11.1080620174
           3       22                  7.1940182175                  7.1685154136
           3       23                 44.8544281765                 44.8543763625
           4       24                 -6.4664147733                 -6.4652229287
           4       25                 13.7099062243                 13.7158503352
           4       26                 25.2661739479                 25.2663166526
 * Note: Onsite integrals marked "***" above are less accurate than
 * onsite_accuracy_threshold =    0.03000 eV. Usually, this is harmless.
 * When in doubt, tighten the "radial" and/or "radial_multiplier" flags to check.

  Preparing densities etc. for the partition functions (integrals / Hartree potential).

  Preparations completed.
  max(cpu_time)          :      0.273 s.
  Wall clock time (cpu1) :      0.271 s.
------------------------------------------------------------
  After prepare_scf [GB]:   1029.19

  Initializing index lists of integration centers etc. from given atomic structure:
  Mapping all atomic coordinates to central unit cell.

  Initializing the k-points
  Using symmetry for reducing the k-points
  | k-points reduced from:       64 to       34
  | Number of k-points                             :        34
  The eigenvectors in the calculations are COMPLEX.
  | K-points in task   0:         1
  | K-points in task   1:         2
  | K-points in task   2:         2
  | K-points in task   3:         1
  | K-points in task   4:         1
  | K-points in task   5:         1
  | K-points in task   6:         1
  | K-points in task   7:         1
  | K-points in task   8:         1
  | K-points in task   9:         1
  | K-points in task  10:         1
  | K-points in task  11:         1
  | K-points in task  12:         1
  | K-points in task  13:         1
  | K-points in task  14:         1
  | K-points in task  15:         1
  | K-points in task  16:         1
  | K-points in task  17:         1
  | K-points in task  18:         1
  | K-points in task  19:         1
  | K-points in task  20:         1
  | K-points in task  21:         1
  | K-points in task  22:         1
  | K-points in task  23:         1
  | K-points in task  24:         1
  | K-points in task  25:         1
  | K-points in task  26:         1
  | K-points in task  27:         1
  | K-points in task  28:         1
  | K-points in task  29:         1
  | K-points in task  30:         1
  | K-points in task  31:         1
  | Number of basis functions in the Hamiltonian integrals :      5597
  | Number of basis functions in a single unit cell        :       568
  | Number of centers in hartree potential         :      1800
  | Number of centers in hartree multipole         :      1005
  | Number of centers in electron density summation:       800
  | Number of centers in basis integrals           :       839
  | Number of centers in integrals                 :       436
  | Number of centers in hamiltonian               :       813
  | Consuming         32 KiB for k_phase.
  | Number of super-cells (origin) [n_cells]                     :         315
  | Number of super-cells (after PM_index) [n_cells]             :          62
  | Number of super-cells in hamiltonian [n_cells_in_hamiltonian]:          62
  | Size of matrix packed + index [n_hamiltonian_matrix_size] :      753515
  After initialize_bc_dependent_lists [GB]:   1029.20

------------------------------------------------------------
          Begin self-consistency loop: Initialization.

          Date     :  20250311, Time     :  204659.887
------------------------------------------------------------
  Available memory per node after initialize_hartree_non_periodic_ewald [GB]:   1029.20
  | Estimated reciprocal-space cutoff momentum G_max:         2.23234583 bohr^-1 .
  | Reciprocal lattice points for long-range Hartree potential:    1094
  Available memory per node after initialize_recip_hartree_potential [GB]:   1029.20
  Available memory per node after initialize_scalapack [GB]:   1029.20
  Available memory per node after aims_elsi_init_scf [GB]:   1029.20
  Available memory per node after initialize_fixed_grids [GB]:   1029.20
  Partitioning the integration grid into batches with parallel hashing+maxmin method.
  | Number of batches:     2445
  | Maximal batch size:     199
  | Minimal batch size:      31
  | Average batch size:      89.267
  | Standard deviation of batch sizes:      39.495

  Integration load balanced across    32 MPI tasks.
  Work distribution over tasks is as follows:
  Task     0 has       6800 integration points.
  Task     1 has       6826 integration points.
  Task     2 has       6810 integration points.
  Task     3 has       6812 integration points.
  Task     4 has       6809 integration points.
  Task     5 has       6799 integration points.
  Task     6 has       6811 integration points.
  Task     7 has       6842 integration points.
  Task     8 has       6799 integration points.
  Task     9 has       6858 integration points.
  Task    10 has       6825 integration points.
  Task    11 has       6823 integration points.
  Task    12 has       6802 integration points.
  Task    13 has       6863 integration points.
  Task    14 has       6858 integration points.
  Task    15 has       6830 integration points.
  Task    16 has       6804 integration points.
  Task    17 has       6819 integration points.
  Task    18 has       6799 integration points.
  Task    19 has       6839 integration points.
  Task    20 has       6804 integration points.
  Task    21 has       6836 integration points.
  Task    22 has       6811 integration points.
  Task    23 has       6836 integration points.
  Task    24 has       6807 integration points.
  Task    25 has       6828 integration points.
  Task    26 has       6833 integration points.
  Task    27 has       6818 integration points.
  Task    28 has       6811 integration points.
  Task    29 has       6818 integration points.
  Task    30 has       6814 integration points.
  Task    31 has       6814 integration points.
  Available memory per node after partition_grid [GB]:   1029.20
  Initializing partition tables, free-atom densities, potentials, etc. across the integration grid (initialize_grid_storage).
  | initialize_grid_storage: Actual outermost partition radius vs. multipole_radius_free
  | (-- VB: in principle, multipole_radius_free should be larger, hence this output)
  | Species        1: Confinement radius =              4.999999999999999 AA, multipole_radius_free =              5.002391649902235 AA.
  | Species        1: outer_partition_radius set to              5.002391649902235 AA .
  | Species        2: Confinement radius =              4.999999999999999 AA, multipole_radius_free =              5.048384829883283 AA.
  | Species        2: outer_partition_radius set to              5.048384829883283 AA .
  | Species        3: Confinement radius =              4.999999999999999 AA, multipole_radius_free =              5.009370088163274 AA.
  | Species        3: outer_partition_radius set to              5.009370088163274 AA .
  | Species        4: Confinement radius =              4.999999999999999 AA, multipole_radius_free =              5.054417573612229 AA.
  | Species        4: outer_partition_radius set to              5.054417573612229 AA .
  | The sparse table of interatomic distances needs       1683.46 kbyte instead of      5631.37 kbyte of memory.
  | Net number of integration points:   218258
  | of which are non-zero points    :   180222
  | Numerical average free-atom electrostatic potential    :     -5.93015786 eV
  Available memory per node after initialize_grid_storage_p1 [GB]:   1029.20
  Renormalizing the initial density to the exact electron count on the 3D integration grid.
  | Initial density: Formal number of electrons (from input files) :     345.0000000000
  | Integrated number of electrons on 3D grid     :     344.9993031802
  | Charge integration error                      :      -0.0006968198
  | Normalization factor for density and gradient :       1.0000020198
  Renormalizing the free-atom superposition density to the exact electron count on the 3D integration grid.
  | Formal number of electrons (from input files) :     344.0000000000
  | Integrated number of electrons on 3D grid     :     344.9993031802
  | Charge integration error                      :      -0.0006968198
  | Normalization factor for density and gradient :       1.0000020198
  Obtaining max. number of non-zero basis functions in each batch (get_n_compute_maxes).
  | Maximal number of non-zero basis functions:      758 in task     0
  | Maximal number of non-zero basis functions:      757 in task     1
  | Maximal number of non-zero basis functions:      758 in task     2
  | Maximal number of non-zero basis functions:      775 in task     3
  | Maximal number of non-zero basis functions:      750 in task     4
  | Maximal number of non-zero basis functions:      736 in task     5
  | Maximal number of non-zero basis functions:      732 in task     6
  | Maximal number of non-zero basis functions:      761 in task     7
  | Maximal number of non-zero basis functions:      725 in task     8
  | Maximal number of non-zero basis functions:      763 in task     9
  | Maximal number of non-zero basis functions:      757 in task    10
  | Maximal number of non-zero basis functions:      739 in task    11
  | Maximal number of non-zero basis functions:      729 in task    12
  | Maximal number of non-zero basis functions:      736 in task    13
  | Maximal number of non-zero basis functions:      716 in task    14
  | Maximal number of non-zero basis functions:      745 in task    15
  | Maximal number of non-zero basis functions:      755 in task    16
  | Maximal number of non-zero basis functions:      742 in task    17
  | Maximal number of non-zero basis functions:      714 in task    18
  | Maximal number of non-zero basis functions:      757 in task    19
  | Maximal number of non-zero basis functions:      737 in task    20
  | Maximal number of non-zero basis functions:      761 in task    21
  | Maximal number of non-zero basis functions:      745 in task    22
  | Maximal number of non-zero basis functions:      754 in task    23
  | Maximal number of non-zero basis functions:      758 in task    24
  | Maximal number of non-zero basis functions:      727 in task    25
  | Maximal number of non-zero basis functions:      734 in task    26
  | Maximal number of non-zero basis functions:      752 in task    27
  | Maximal number of non-zero basis functions:      730 in task    28
  | Maximal number of non-zero basis functions:      730 in task    29
  | Maximal number of non-zero basis functions:      723 in task    30
  | Maximal number of non-zero basis functions:      728 in task    31
  Available memory per node after get_n_compute_maxes_p1 [GB]:   1029.20
  Allocating        2.496 MB for KS_eigenvector_complex
  Available memory per node after allocate_matrices [GB]:   1029.20
  Available memory per node after init_comm_sparse_local_matrix_scalapack [GB]:   1029.20
  Integrating Hamiltonian matrix: batch-based integration.
  Time summed over all CPUs for integration: real work       21.870 s, elapsed       23.956 s
  Available memory per node after integrate hamiltonian matrix [GB]:   1029.11
  Integrating overlap matrix.
  Time summed over all CPUs for integration: real work        6.416 s, elapsed        7.162 s
  Available memory per node after integrate ovlp matrix [GB]:   1028.69
  Available memory per node after ASI_callbacks invoke [GB]:   1028.69
  Available memory per node after save_overlap_scalapack [GB]:   1028.69

  Updating Kohn-Sham eigenvalues and eigenvectors using ELSI and the (modified) LAPACK eigensolver.
  Singularity check in k-point 32, task 0 (analysis for other k-points/tasks may follow below):
  Overlap matrix is not singular
  | Lowest and highest eigenvalues :  0.1038E-02,  0.7770E+01
  Finished singularity check of overlap matrix
  | Time :     0.107 s
  Starting LAPACK eigensolver
  Finished Cholesky decomposition
  | Time :     0.018 s
  Finished transformation to standard eigenproblem
  | Time :     0.027 s
  Finished solving standard eigenproblem
  | Time :     0.119 s
  Finished back-transformation of eigenvectors
  | Time :     0.011 s

  Obtaining occupation numbers and electronic chemical potential using ELSI.
  | Note that, for insulating systems, the printed 'chemical potential' value is not uniquely defined.
  | It can be anywhere in the energy gap, as long as it correctly separates occupied and unoccupied states.
  | In systems with a gap, the physically relevant chemical potential is the VBM or HOMO.

  | Chemical potential (Fermi level):    -6.20047723 eV
  Available memory per node after advance_KS_solution [GB]:   1028.08
  Writing Kohn-Sham eigenvalues.
  K-point:       1 at    0.000000    0.000000    0.000000 (in units of recip. lattice)

  State    Occupation    Eigenvalue [Ha]    Eigenvalue [eV]
      1       2.00000        -179.962541        -4897.02989
      2       2.00000        -179.962541        -4897.02989
      3       2.00000        -179.962419        -4897.02657
      4       2.00000        -179.962419        -4897.02657
      5       2.00000        -179.962419        -4897.02657
      6       2.00000        -179.962418        -4897.02655
      7       2.00000        -179.961890        -4897.01217
      8       2.00000        -179.961890        -4897.01217
      9       2.00000         -24.520841         -667.24604
     10       2.00000         -19.738098         -537.10099
     11       2.00000         -19.738098         -537.10099
     12       2.00000         -19.737968         -537.09744
     13       2.00000         -19.737968         -537.09744
     14       2.00000         -19.737968         -537.09744
     15       2.00000         -19.737967         -537.09741
     16       2.00000         -19.737404         -537.08208
     17       2.00000         -19.737404         -537.08208
     18       2.00000         -19.048963         -518.34866
     19       2.00000         -19.048963         -518.34866
     20       2.00000         -19.048942         -518.34808
     21       2.00000         -19.034649         -517.95914
     22       2.00000         -19.034649         -517.95914
     23       2.00000         -19.034648         -517.95914
     24       2.00000         -19.034616         -517.95825
     25       2.00000         -19.034616         -517.95825
     26       2.00000         -19.034616         -517.95824
     27       2.00000         -19.034616         -517.95824
     28       2.00000         -19.034593         -517.95763
     29       2.00000         -19.034593         -517.95763
     30       2.00000         -19.034593         -517.95762
     31       2.00000         -19.034593         -517.95762
     32       2.00000         -19.034582         -517.95734
     33       2.00000         -19.007289         -517.21465
     34       2.00000         -19.007289         -517.21465
     35       2.00000         -19.007289         -517.21465
     36       2.00000         -19.007286         -517.21458
     37       2.00000         -16.328271         -444.31485
     38       2.00000         -16.328271         -444.31485
     39       2.00000         -16.328140         -444.31130
     40       2.00000         -16.328140         -444.31130
     41       2.00000         -16.328140         -444.31130
     42       2.00000         -16.328139         -444.31127
     43       2.00000         -16.327951         -444.30616
     44       2.00000         -16.327951         -444.30616
     45       2.00000         -16.327945         -444.30598
     46       2.00000         -16.327945         -444.30598
     47       2.00000         -16.327831         -444.30288
     48       2.00000         -16.327831         -444.30288
     49       2.00000         -16.327831         -444.30288
     50       2.00000         -16.327830         -444.30285
     51       2.00000         -16.327810         -444.30230
     52       2.00000         -16.327810         -444.30230
     53       2.00000         -16.327810         -444.30230
     54       2.00000         -16.327809         -444.30228
     55       2.00000         -16.327572         -444.29584
     56       2.00000         -16.327572         -444.29584
     57       2.00000         -16.327280         -444.28789
     58       2.00000         -16.327280         -444.28789
     59       2.00000         -16.327256         -444.28723
     60       2.00000         -16.327256         -444.28723
     61       2.00000          -2.309511          -62.84498
     62       2.00000          -2.309161          -62.83546
     63       2.00000          -2.309039          -62.83216
     64       2.00000          -2.308078          -62.80600
     65       2.00000          -2.307595          -62.79286
     66       2.00000          -2.307369          -62.78670
     67       2.00000          -2.307365          -62.78660
     68       2.00000          -2.306331          -62.75845
     69       2.00000          -1.465491          -39.87803
     70       2.00000          -1.464732          -39.85738
     71       2.00000          -1.464096          -39.84008
     72       2.00000          -1.464058          -39.83903
     73       2.00000          -1.450138          -39.46028
     74       2.00000          -1.449710          -39.44863
     75       2.00000          -1.448410          -39.41323
     76       2.00000          -1.447848          -39.39796
     77       2.00000          -1.441806          -39.23352
     78       2.00000          -1.441644          -39.22912
     79       2.00000          -1.441574          -39.22722
     80       2.00000          -1.441312          -39.22009
     81       2.00000          -1.441215          -39.21745
     82       2.00000          -1.440915          -39.20930
     83       2.00000          -1.440781          -39.20565
     84       2.00000          -1.440717          -39.20392
     85       2.00000          -1.440642          -39.20186
     86       2.00000          -1.439888          -39.18135
     87       2.00000          -1.439878          -39.18106
     88       2.00000          -1.439848          -39.18025
     89       2.00000          -1.439817          -39.17942
     90       2.00000          -1.439700          -39.17624
     91       2.00000          -1.439022          -39.15779
     92       2.00000          -1.437876          -39.12659
     93       2.00000          -1.267781          -34.49806
     94       2.00000          -1.079706          -29.38030
     95       2.00000          -1.074376          -29.23525
     96       2.00000          -1.069018          -29.08945
     97       2.00000          -1.053139          -28.65736
     98       2.00000          -1.049598          -28.56102
     99       2.00000          -1.029226          -28.00667
    100       2.00000          -1.027204          -27.95164
    101       2.00000          -1.026667          -27.93703
    102       2.00000          -1.026079          -27.92103
    103       2.00000          -1.025339          -27.90089
    104       2.00000          -1.023624          -27.85422
    105       2.00000          -1.021780          -27.80404
    106       2.00000          -1.020560          -27.77086
    107       2.00000          -1.016399          -27.65762
    108       2.00000          -1.016387          -27.65729
    109       2.00000          -1.015474          -27.63245
    110       2.00000          -1.014886          -27.61646
    111       2.00000          -1.007082          -27.40408
    112       2.00000          -1.005593          -27.36359
    113       2.00000          -0.674447          -18.35263
    114       2.00000          -0.632325          -17.20643
    115       2.00000          -0.621759          -16.91893
    116       2.00000          -0.612954          -16.67932
    117       2.00000          -0.582552          -15.85205
    118       2.00000          -0.581482          -15.82292
    119       2.00000          -0.579228          -15.76159
    120       2.00000          -0.574248          -15.62610
    121       2.00000          -0.573108          -15.59507
    122       2.00000          -0.571501          -15.55132
    123       2.00000          -0.570968          -15.53683
    124       2.00000          -0.558500          -15.19757
    125       2.00000          -0.546197          -14.86277
    126       2.00000          -0.540770          -14.71511
    127       2.00000          -0.535925          -14.58326
    128       2.00000          -0.533240          -14.51019
    129       2.00000          -0.531886          -14.47335
    130       2.00000          -0.531569          -14.46473
    131       2.00000          -0.529313          -14.40335
    132       2.00000          -0.522720          -14.22395
    133       2.00000          -0.518873          -14.11925
    134       2.00000          -0.517662          -14.08629
    135       2.00000          -0.517345          -14.07766
    136       2.00000          -0.516519          -14.05520
    137       2.00000          -0.515671          -14.03211
    138       2.00000          -0.515115          -14.01699
    139       2.00000          -0.514705          -14.00583
    140       2.00000          -0.504377          -13.72480
    141       2.00000          -0.501444          -13.64499
    142       2.00000          -0.500913          -13.63054
    143       2.00000          -0.500308          -13.61408
    144       2.00000          -0.489563          -13.32169
    145       2.00000          -0.489174          -13.31111
    146       2.00000          -0.482473          -13.12877
    147       2.00000          -0.481027          -13.08942
    148       2.00000          -0.480173          -13.06617
    149       2.00000          -0.476612          -12.96928
    150       2.00000          -0.467089          -12.71013
    151       2.00000          -0.467024          -12.70838
    152       2.00000          -0.465971          -12.67973
    153       2.00000          -0.463786          -12.62026
    154       2.00000          -0.462166          -12.57619
    155       2.00000          -0.455294          -12.38918
    156       2.00000          -0.455225          -12.38730
    157       2.00000          -0.453502          -12.34043
    158       2.00000          -0.452665          -12.31763
    159       2.00000          -0.451306          -12.28067
    160       2.00000          -0.449659          -12.23584
    161       2.00000          -0.448195          -12.19601
    162       2.00000          -0.445204          -12.11461
    163       2.00000          -0.438193          -11.92384
    164       2.00000          -0.435788          -11.85841
    165       2.00000          -0.426806          -11.61397
    166       2.00000          -0.425321          -11.57357
    167       2.00000          -0.418147          -11.37835
    168       2.00000          -0.415526          -11.30704
    169       2.00000          -0.415030          -11.29355
    170       2.00000          -0.409915          -11.15436
    171       2.00000          -0.399380          -10.86770
    172       2.00000          -0.399243          -10.86396
    173       0.00000          -0.193749           -5.27218
    174       0.00000          -0.192507           -5.23838
    175       0.00000          -0.189032           -5.14382
    176       0.00000          -0.186939           -5.08688
    177       0.00000          -0.171720           -4.67274
    178       0.00000          -0.170734           -4.64591
    179       0.00000          -0.161888           -4.40519
    180       0.00000          -0.158643           -4.31690
    181       0.00000          -0.156326           -4.25384
    182       0.00000          -0.155995           -4.24483
    183       0.00000          -0.154494           -4.20400
    184       0.00000          -0.153675           -4.18172
    185       0.00000          -0.152962           -4.16231
    186       0.00000          -0.146436           -3.98473
    187       0.00000          -0.146010           -3.97313
    188       0.00000          -0.145848           -3.96873
    189       0.00000          -0.144592           -3.93455
    190       0.00000          -0.138384           -3.76562
    191       0.00000          -0.135803           -3.69538
    192       0.00000          -0.133533           -3.63362
    193       0.00000          -0.133212           -3.62490
    194       0.00000          -0.131161           -3.56908
    195       0.00000          -0.124724           -3.39392
    196       0.00000          -0.119371           -3.24825
    197       0.00000          -0.111720           -3.04006
    198       0.00000          -0.106163           -2.88885
    199       0.00000          -0.090163           -2.45345
    200       0.00000          -0.081745           -2.22440
    201       0.00000          -0.078387           -2.13303
    202       0.00000          -0.077783           -2.11659
    203       0.00000          -0.068944           -1.87607
    204       0.00000          -0.065320           -1.77744
    205       0.00000          -0.062510           -1.70097
    206       0.00000          -0.061299           -1.66802
    207       0.00000          -0.053968           -1.46855
    208       0.00000          -0.053868           -1.46581
    209       0.00000          -0.051845           -1.41078
    210       0.00000          -0.051766           -1.40862
    211       0.00000          -0.050630           -1.37771
    212       0.00000          -0.050568           -1.37604
    213       0.00000          -0.041217           -1.12158
    214       0.00000          -0.040921           -1.11351
    215       0.00000          -0.027636           -0.75202
    216       0.00000          -0.010479           -0.28514
    217       0.00000           0.000165            0.00449
    218       0.00000           0.007022            0.19108
    219       0.00000           0.015193            0.41343
    220       0.00000           0.049056            1.33489
    221       0.00000           0.051648            1.40541
    222       0.00000           0.056541            1.53855
    223       0.00000           0.066158            1.80026
    224       0.00000           0.086683            2.35877
    225       0.00000           0.104413            2.84123
    226       0.00000           0.109138            2.96980
[...]
    208       0.00000          -0.077217           -2.10118
    209       0.00000          -0.076215           -2.07391
    210       0.00000          -0.075930           -2.06616
    211       0.00000          -0.061418           -1.67126
    212       0.00000          -0.061237           -1.66636
    213       0.00000          -0.060951           -1.65856
    214       0.00000          -0.052993           -1.44200
    215       0.00000          -0.041075           -1.11772
    216       0.00000          -0.008138           -0.22144
    217       0.00000           0.018005            0.48995
    218       0.00000           0.021039            0.57250
    219       0.00000           0.027321            0.74344
    220       0.00000           0.063396            1.72509
    221       0.00000           0.074130            2.01719
    222       0.00000           0.091965            2.50250
    223       0.00000           0.101191            2.75355
    224       0.00000           0.108314            2.94737
    225       0.00000           0.139554            3.79747
    226       0.00000           0.148564            4.04265
    227       0.00000           0.153259            4.17039
    228       0.00000           0.163221            4.44146
    229       0.00000           0.176325            4.79806
    230       0.00000           0.182839            4.97530
    231       0.00000           0.195358            5.31596
    232       0.00000           0.200435            5.45410
    233       0.00000           0.211225            5.74773
    234       0.00000           0.214048            5.82455
    235       0.00000           0.230125            6.26203
    236       0.00000           0.232121            6.31633
    237       0.00000           0.242362            6.59501
    238       0.00000           0.247632            6.73841
    239       0.00000           0.251993            6.85707
    240       0.00000           0.259870            7.07144
    241       0.00000           0.262611            7.14601
    242       0.00000           0.274962            7.48210
    243       0.00000           0.280931            7.64451
    244       0.00000           0.281773            7.66743
    245       0.00000           0.308158            8.38540
    246       0.00000           0.308720            8.40069
    247       0.00000           0.313071            8.51911
    248       0.00000           0.313765            8.53797
    249       0.00000           0.322491            8.77542
    250       0.00000           0.335057            9.11735
    251       0.00000           0.342731            9.32619
    252       0.00000           0.343518            9.34761
    253       0.00000           0.358646            9.75925
    254       0.00000           0.364791            9.92646
    255       0.00000           0.365345            9.94154
    256       0.00000           0.365724            9.95186
    257       0.00000           0.383501           10.43559
    258       0.00000           0.383637           10.43928
    259       0.00000           0.397350           10.81244
    260       0.00000           0.411829           11.20645
    261       0.00000           0.415962           11.31890
    262       0.00000           0.416880           11.34388
    263       0.00000           0.424351           11.54719
    264       0.00000           0.425222           11.57087
    265       0.00000           0.428936           11.67195
    266       0.00000           0.429174           11.67841
    267       0.00000           0.435145           11.84090
    268       0.00000           0.451446           12.28448
    269       0.00000           0.454210           12.35968
    270       0.00000           0.477885           13.00392
    271       0.00000           0.484559           13.18553
    272       0.00000           0.493124           13.41857
    273       0.00000           0.500411           13.61687
    274       0.00000           0.501467           13.64561
    275       0.00000           0.518040           14.09658
    276       0.00000           0.537382           14.62292
    277       0.00000           0.543598           14.79204
    278       0.00000           0.544327           14.81189
    279       0.00000           0.550739           14.98636
    280       0.00000           0.592024           16.10979
    281       0.00000           0.596120           16.22124
    282       0.00000           0.606585           16.50601
    283       0.00000           0.612702           16.67248
    284       0.00000           0.623945           16.97841
    285       0.00000           0.624564           16.99526
    286       0.00000           0.631221           17.17640
    287       0.00000           0.637081           17.33585
    288       0.00000           0.657198           17.88327

  What follows are estimated values for band gap, HOMO, LUMO, etc.
  | They are estimated on a discrete k-point grid and not necessarily exact.
  | For converged numbers, create a DOS and/or band structure plot on a denser k-grid.

  Highest occupied state (VBM) at     -7.02251645 eV (relative to internal zero)
  | Occupation number:      1.02006746
  | K-point:      18 at    0.375000    0.000000    0.000000 (in units of recip. lattice)

  Lowest unoccupied state (CBM) at    -7.02157710 eV (relative to internal zero)
  | Occupation number:      0.99887078
  | K-point:       6 at    0.125000    0.000000    0.000000 (in units of recip. lattice)

  ESTIMATED overall HOMO-LUMO gap:      0.00093935 eV between HOMO at k-point 18 and LUMO at k-point 6
  | This appears to be an indirect band gap.
  | Smallest direct gap :      0.00725455 eV for k_point 24 at    0.500000    0.000000    0.000000 (in units of recip. lattice)
  However, this system has fractional occupation numbers. Since we use a finite k-point grid,
  this material is metallic within the approximate finite broadening function (occupation_type)
  applied to determine the occupation numbers.

  Total energy components:
  | Sum of eigenvalues            :       -4932.02417149 Ha     -134207.20609372 eV
  | XC energy correction          :        -512.78461400 Ha      -13953.57929733 eV
  | XC potential correction       :         662.74817271 Ha       18034.29535440 eV
  | Free-atom electrostatic energy:       -3577.40079504 Ha      -97346.02854450 eV
  | Hartree energy correction     :          -6.33767954 Ha        -172.45703472 eV
  | Entropy correction            :          -0.00027026 Ha          -0.00735425 eV
  | ---------------------------
  | Total energy                  :       -8365.79908736 Ha     -227644.97561587 eV
  | Total energy, T -> 0          :       -8365.79935762 Ha     -227644.98297012 eV  <-- do not rely on this value for anything but (periodic) metals
  | Electronic free energy        :       -8365.79962789 Ha     -227644.99032437 eV

  Derived energy quantities:
  | Kinetic energy                :        8459.47668141 Ha      230194.07264673 eV
  | Electrostatic energy          :      -16312.49115477 Ha     -443885.46896527 eV
  | Energy correction for multipole
  | error in Hartree potential    :           0.07303092 Ha           1.98727256 eV
  | Sum of eigenvalues per atom                           :       -3727.97794705 eV
  | Total energy (T->0) per atom                          :       -6323.47174917 eV  <-- do not rely on this value for anything but (periodic) metals
  | Electronic free energy per atom                       :       -6323.47195345 eV
  End evaluation of scaled ZORA corrections.
  | Time for scaled ZORA corrections            :        1.566 s           1.566 s
------------------------------------------------------------

  Energy and forces in a compact form:
  | Total energy uncorrected      :         -0.227644975615869E+06 eV
  | Total energy corrected        :         -0.227644982970120E+06 eV  <-- do not rely on this value for anything but (periodic) metals
  | Electronic free energy        :         -0.227644990324371E+06 eV

  ------------------------------------ 
  Start decomposition of the XC Energy 
  ------------------------------------ 
  X and C from original XC functional choice 
  Hartree-Fock Energy :          0.000000000 Ha              0.000000000 eV
  X Energy            :       -499.460186612 Ha         -13591.003180349 eV
  C Energy            :        -13.324427391 Ha           -362.576116981 eV
  XC Energy w/o HF    :       -512.784614003 Ha         -13953.579297330 eV
  Total XC Energy     :       -512.784614003 Ha         -13953.579297330 eV
  ------------------------------------ 
  LDA X and C from self-consistent density 
  X Energy LDA        :       -462.928351193 Ha         -12596.921360269 eV
  C Energy LDA        :        -26.153690952 Ha           -711.678140584 eV
  ------------------------------------ 
  End decomposition of the XC Energy 
  ------------------------------------ 

------------------------------------------------------------

  ------------------------------------------------------------
                   Starting Mulliken Analysis
  ------------------------------------------------------------

  Performing Mulliken charge analysis on all atoms.
  Full analysis will be written to separate file 'Mulliken.out'.
  Summary of the per-atom charge analysis:
  |
  |  atom       electrons          charge             l=0             l=1             l=2             l=3
  |     1        8.446219       -0.446219        3.716767        4.718490        0.010961
  |     2        8.604015       -0.604015        3.848106        4.745986        0.009923
  |     3       20.794421        1.205579        6.019744       12.495291        2.135344        0.144042
  |     4       20.785458        1.214542        6.011856       12.510966        2.117265        0.145371
  |     5        8.604020       -0.604020        3.848105        4.745992        0.009923
  |     6        8.595865       -0.595865        3.843002        4.743306        0.009557
  |     7        8.548304       -0.548304        3.846965        4.690766        0.010573
  |     8        8.608981       -0.608981        3.847180        4.751978        0.009823
  |     9       20.780623        1.219377        6.018579       12.492415        2.125198        0.144430
  |    10       20.847890        1.152110        6.018563       12.484489        2.206754        0.138083
  |    11        8.608977       -0.608977        3.847180        4.751974        0.009823
  |    12        8.463078       -0.463078        3.717551        4.733411        0.012116
  |    13        8.446171       -0.446171        3.716783        4.718431        0.010957
  |    14        8.604015       -0.604015        3.848106        4.745986        0.009923
  |    15       20.795135        1.204865        6.019937       12.495479        2.135413        0.144306
  |    16       20.785458        1.214542        6.011856       12.510966        2.117265        0.145371
  |    17        8.604020       -0.604020        3.848105        4.745992        0.009923
  |    18        8.593726       -0.593726        3.842969        4.741169        0.009589
  |    19        8.563025       -0.563025        3.844216        4.707981        0.010828
  |    20        8.608981       -0.608981        3.847180        4.751978        0.009823
  |    21       20.812093        1.187907        6.024067       12.500386        2.142093        0.145547
  |    22       20.847890        1.152110        6.018563       12.484489        2.206754        0.138083
  |    23        8.608977       -0.608977        3.847180        4.751974        0.009823
  |    24        9.147147       -0.147147        3.838196        5.293519        0.015431
  |    25        0.628461        0.371539        0.551462        0.076999
  |    26        0.765596        0.234404        0.683429        0.082167
  |    27        0.750138        0.249862        0.669416        0.080722
  |    28        0.750101        0.249899        0.669384        0.080717
  |    29        8.477521       -0.477521        3.748514        4.721492        0.007515
  |    30        8.448847       -0.448847        3.749949        4.691447        0.007451
  |    31        0.820081        0.179919        0.732223        0.087858
  |    32        0.821945        0.178055        0.733957        0.087988
  |    33        8.408846       -0.408846        3.753028        4.648454        0.007364
  |    34        8.408671       -0.408671        3.753173        4.648122        0.007376
  |    35        0.807574        0.192426        0.720400        0.087174
  |    36        0.807733        0.192267        0.720577        0.087156
  |
  | Total      344.000000        1.000000
 
  Writing Mulliken decomposition to disk ...

  Mulliken analysis                                       :  max(cpu_time)    wall_clock(cpu1)
  | Time for Mulliken analysis                            :          2.607               2.613
  | Total time for Mulliken analysis                      :          2.607               2.613
------------------------------------------------------------

------------------------------------------------------------------------------
  Final output of selected total energy values:

  The following output summarizes some interesting total energy values
  at the end of a run (AFTER all relaxation, molecular dynamics, etc.).

  | Total energy of the DFT / Hartree-Fock s.c.f. calculation      :        -227644.975615869 eV
  | Final zero-broadening corrected energy (caution - metals only) :        -227644.982970120 eV
  | For reference only, the value of 1 Hartree used in FHI-aims is :             27.211384500 eV
  | For reference only, the overall average (free atom contribution
  | + realspace contribution) of the electrostatic potential after
  | s.c.f. convergence is                                          :             -5.892792132 eV

  Before relying on these values, please be sure to understand exactly which
  total energy value is referred to by a given number. Different objects may
  all carry the same name 'total energy'. Definitions:

  Total energy of the DFT / Hartree-Fock s.c.f. calculation:
  | Note that this energy does not include ANY quantities calculated after the
  | s.c.f. cycle, in particular not ANY RPA, MP2, etc. many-body perturbation terms.
  | Scalar relativistic effects have been included in the 'scaled ZORA' approximation.

  Final zero-broadening corrected energy:
  | For metallic systems only, a broadening of the occupation numbers at the Fermi
  | level can be extrapolated back to zero broadening by an electron-gas inspired
  | formula. For all systems that are not real metals, this value can be
  | meaningless and should be avoided.

------------------------------------------------------------------------------
  Methods described in the following list of references were used in this FHI-aims run.
  If you publish the results, please make sure to cite these reference if they apply.
  FHI-aims is an academic code, and for our developers (often, Ph.D. students
  and postdocs), scientific credit in the community is essential.
  Thank you for helping us!

  For any use of FHI-aims, please cite:

    Volker Blum, Ralf Gehrke, Felix Hanke, Paula Havu, Ville Havu,
    Xinguo Ren, Karsten Reuter, and Matthias Scheffler
    'Ab initio molecular simulations with numeric atom-centered orbitals'
    Computer Physics Communications 180, 2175-2196 (2009)
    http://doi.org/10.1016/j.cpc.2009.06.022


  The provided symmetry information was generated with SPGlib:

    Atsushi Togo, Yusuke Seto, Dimitar Pashov
    SPGlib 1.7.3 obtained from http://spglib.sourceforge.net
    Licence: New BSD license
    Copyright (C) 2008 Atsushi Togo


  The ELSI infrastructure was used in your run to solve the Kohn-Sham electronic structure.
  Please check out https://wordpress.elsi-interchange.org to learn more.
  If scalability is important for your project, please acknowledge ELSI by citing:

    V. W-z. Yu, F. Corsetti, A. Garcia, W. P. Huhn, M. Jacquelin, W. Jia,
    B. Lange, L. Lin, J. Lu, W. Mi, A. Seifitokaldani, A. Vazquez-Mayagoitia,
    C. Yang, H. Yang, and V. Blum
    'ELSI: A unified software interface for Kohn-Sham electronic structure solvers'
    Computer Physics Communications 222, 267-285 (2018).
    http://doi.org/10.1016/j.cpc.2017.09.007


  For the real-space grid partitioning and parallelization used in this calculation, please cite:

    Ville Havu, Volker Blum, Paula Havu, and Matthias Scheffler,
    'Efficient O(N) integration for all-electron electronic structure calculation'
    'using numerically tabulated basis functions'
    Journal of Computational Physics 228, 8367-8379 (2009).
    http://doi.org/10.1016/j.jcp.2009.08.008

  Of course, there are many other important community references, e.g., those cited in the
  above references. Our list is limited to references that describe implementations in the
  FHI-aims code. The reason is purely practical (length of this list) - please credit others as well.

   One or more s.c.f. cycles took more than 50 s.c.f. iterations.
   It might be worth adjusting your convergence settings. For example,
   metals need a larger broadening and a smaller "charge_mix_param" value than semiconductors.

------------------------------------------------------------
          Leaving FHI-aims.
          Date     :  20250311, Time     :  205103.461

          Computational steps:
          | Number of self-consistency cycles          :           83
          | Number of SCF (re)initializations          :            1

          Detailed time accounting                     :  max(cpu_time)    wall_clock(cpu1)
          | Total time                                  :      243.922 s         243.930 s
          | Preparation time                            :        0.273 s           0.271 s
          | Boundary condition initalization            :        0.039 s           0.039 s
          | Grid partitioning                           :        0.131 s           0.132 s
          | Preloading free-atom quantities on grid     :        0.300 s           0.300 s
          | Free-atom superposition energy              :        0.040 s           0.040 s
          | Total time for integrations                 :       63.470 s          63.469 s
          | Total time for solution of K.-S. equations  :       29.964 s          29.968 s
          | Total time for density update               :       57.712 s          57.711 s
          | Total time for mixing & preconditioning     :       74.303 s          74.299 s
          | Total time for Hartree multipole update     :        0.258 s           0.264 s
          | Total time for Hartree multipole sum        :       13.108 s          13.111 s
          | Total time for total energy evaluation      :        0.025 s           0.021 s
          | Total time for scaled ZORA corrections      :        1.566 s           1.566 s
          | Total time for Mulliken analysis            :        2.614 s           2.613 s

          Partial memory accounting:
          | Residual value for overall tracked memory usage across tasks:     0.000000 MB (should be 0.000000 MB)
          | Peak values for overall tracked memory usage:
          |   Minimum:       40.448 MB (on task  5 after allocating eval_tmp)
          |   Maximum:       42.959 MB (on task  1 after allocating eval_tmp)
          |   Average:       40.616 MB
          | Largest tracked array allocation:
          |   Minimum:        5.749 MB (overlap_matrix on task  0)
          |   Maximum:        5.749 MB (overlap_matrix on task  0)
          |   Average:        5.749 MB
          Note:  These values currently only include a subset of arrays which are explicitly tracked.
          The "true" memory usage will be greater.

          Have a nice day.
------------------------------------------------------------
