------------------------------------------------------------
          Invoking FHI-aims ...

          When using FHI-aims, please cite the following reference:

            Volker Blum, Ralf Gehrke, Felix Hanke, Paula Havu,
            Ville Havu, Xinguo Ren, Karsten Reuter, and Matthias Scheffler,
            'Ab Initio Molecular Simulations with Numeric Atom-Centered Orbitals',
            Computer Physics Communications 180, 2175-2196 (2009)

          In addition, many other developments in FHI-aims are likely important for
          your particular application. If so, please cite them. A partial list of references
          is written at the end of this file. Thank you for giving credit to the authors
          of these developments.

          For general information about FHI-aims please find us at

            https://fhi-aims.org

          Online tutorials can be found at

            https://fhi-aims-club.gitlab.io/tutorials/tutorials-overview/

          For any questions about FHI-aims, please visit our slack channel at

            https://fhi-aims.slack.com

          and our main development and support site at

            https://aims-git.rz-berlin.mpg.de .

          The latter site, in particular, has a wiki to collect information, as well
          as an issue tracker to log discussions, suggest improvements, and report issues
          or bugs. https://aims-git.rz-berlin.mpg.de is also the main development site
          of the project and all new and updated code versions can be obtained there.
          Please send an email to aims-coordinators@fhi-berlin.mpg.de and we will add
          you to these sites. They are for you and everyone is welcome there.

------------------------------------------------------------



  Date     :  20250306, Time     :  150224.972
  Time zero on CPU 1             :   0.538069000000000E+00  s.
  Internal wall clock time zero  :           510505344.972  s.

  FHI-aims created a unique identifier for this run for later identification
  aims_uuid : B2D094AB-7DEC-41F5-A380-F8179FAD8FB4

  Build configuration of the current instance of FHI-aims
  -------------------------------------------------------
  FHI-aims version      : 240828
  Commit number         : 34179f313
  CMake host system     : Linux-6.5.0-44-generic
  CMake version         : 3.22.1
  Fortran compiler      : /opt/intel/oneapi/mpi/2021.12/bin/mpiifort (IntelLLVM) version 2024.1.0
  Fortran compiler flags: -fc=ifx -O3 -ip -fp-model precise
  C compiler            : /opt/intel/oneapi/mpi/2021.12/bin/mpiicc (IntelLLVM) version 2024.1.0
  C compiler flags      : -cc=icx -O3 -ip -fp-model precise -std=gnu99
  C++ compiler          : /opt/intel/oneapi/mpi/2021.12/bin/mpiicpc (IntelLLVM) version 2024.1.0
  C++ compiler flags    : -cxx=icpx -O3 -ip -fp-model precise -std=c++11
  HIP compiler          :
  HIP compiler flags    :
  HIP GPU arch          :
  Using MPI
  Using ScaLAPACK
  Using LibXC
  Using i-PI
  Using RLSY
  Linking against: /opt/intel/oneapi/mkl/2024.1/lib/intel64/libmkl_intel_lp64.so
                   /opt/intel/oneapi/mkl/2024.1/lib/intel64/libmkl_sequential.so
                   /opt/intel/oneapi/mkl/2024.1/lib/intel64/libmkl_core.so
                   /opt/intel/oneapi/mkl/2024.1/lib/intel64/libmkl_blacs_intelmpi_lp64.so
                   /opt/intel/oneapi/mkl/2024.1/lib/intel64/libmkl_scalapack_lp64.so
                   /opt/intel/oneapi/mkl/2024.1/lib/intel64/libmkl_core.so

  Using       20 parallel tasks.
  Task        0 on host RSL-arvutus reporting.
  Task        1 on host RSL-arvutus reporting.
  Task        2 on host RSL-arvutus reporting.
  Task        3 on host RSL-arvutus reporting.
  Task        4 on host RSL-arvutus reporting.
  Task        5 on host RSL-arvutus reporting.
  Task        6 on host RSL-arvutus reporting.
  Task        7 on host RSL-arvutus reporting.
  Task        8 on host RSL-arvutus reporting.
  Task        9 on host RSL-arvutus reporting.
  Task       10 on host RSL-arvutus reporting.
  Task       11 on host RSL-arvutus reporting.
  Task       12 on host RSL-arvutus reporting.
  Task       13 on host RSL-arvutus reporting.
  Task       14 on host RSL-arvutus reporting.
  Task       15 on host RSL-arvutus reporting.
  Task       16 on host RSL-arvutus reporting.
  Task       17 on host RSL-arvutus reporting.
  Task       18 on host RSL-arvutus reporting.
  Task       19 on host RSL-arvutus reporting.

  Memory overcommitment is allowed on your operating system.

  Obtaining array dimensions for all initial allocations:
  
  -----------------------------------------------------------------------
  Parsing control.in (first pass over file, find array dimensions only).
  The contents of control.in will be repeated verbatim below
  unless switched off by setting 'verbatim_writeout .false.' .
  in the first line of control.in .
  -----------------------------------------------------------------------
  
    xc               pbe
    relativistic     atomic_zora scalar
    spin             none
  
    relax_geometry   bfgs 5.0e-3
  
  
  ################################################################################
  #
  #  FHI-aims code project
  #  Volker Blum, Fritz Haber Institute Berlin, 2009
  #
  #  Suggested "tight" defaults for H atom (to be pasted into control.in file)
  #
  ################################################################################
    species        H
  #     global species definitions
      nucleus             1
      mass                1.00794
  #
      l_hartree           6
  #
      cut_pot             4.0  2.0  1.0
      basis_dep_cutoff    1e-4
  #
      radial_base         24 7.0
      radial_multiplier   2
      angular_grids       specified
        division   0.1930   50
        division   0.3175  110
        division   0.4293  194
        division   0.5066  302
        division   0.5626  434
  #      division   0.5922  590
  #      division   0.6227  974
  #      division   0.6868 1202
  #      outer_grid  770
        outer_grid  434
  ################################################################################
  #
  #  Definition of "minimal" basis
  #
  ################################################################################
  #     valence basis states
      valence      1  s   1.
  #     ion occupancy
      ion_occ      1  s   0.5
  ################################################################################
  #
  #  Suggested additional basis functions. For production calculations,
  #  uncomment them one after another (the most important basis functions are
  #  listed first).
  #
  #  Basis constructed for dimers: 0.5 A, 0.7 A, 1.0 A, 1.5 A, 2.5 A
  #
  ################################################################################
  #  "First tier" - improvements: -1014.90 meV to -62.69 meV
       hydro 2 s 2.1
       hydro 2 p 3.5
  #  "Second tier" - improvements: -12.89 meV to -1.83 meV
       hydro 1 s 0.85
       hydro 2 p 3.7
       hydro 2 s 1.2
       hydro 3 d 7
  #  "Third tier" - improvements: -0.25 meV to -0.12 meV
  #     hydro 4 f 11.2
  #     hydro 3 p 4.8
  #     hydro 4 d 9
  #     hydro 3 s 3.2
  ################################################################################
  #
  # For methods that use the localized form of the "resolution of identity" for
  # the two-electron Coulomb operator (RI_method LVL), particularly Hartree-Fock and
  # hybrid density functional calculations, the highest accuracy can be obtained by
  # uncommenting the line beginning with "for_aux"  below, thus adding an extra g radial
  # function to the construction of the product basis set for the expansion.
  # See Ref. New J. Phys. 17, 093020 (2015) for more information, particularly Figs. 1 and 6.
  #
  ################################################################################
  #
  # for_aux hydro 5 g 6.0
  
  
  ################################################################################
  #
  #  FHI-aims code project
  #  Volker Blum, Fritz Haber Institute Berlin, 2009
  #
  #  Suggested "tight" defaults for C atom (to be pasted into control.in file)
  #
  ################################################################################
    species        C
  #     global species definitions
      nucleus             6
      mass                12.0107
  #
      l_hartree           6
  #
      cut_pot             4.0  2.0  1.0
      basis_dep_cutoff    1e-4
  #
      radial_base         34 7.0
      radial_multiplier   2
      angular_grids specified
        division   0.2187   50
        division   0.4416  110
        division   0.6335  194
        division   0.7727  302
        division   0.8772  434
  #      division   0.9334  590
  #      division   0.9924  770
  #      division   1.0230  974
  #      division   1.5020 1202
  #     outer_grid  974
        outer_grid  434
  ################################################################################
  #
  #  Definition of "minimal" basis
  #
  ################################################################################
  #     valence basis states
      valence      2  s   2.
      valence      2  p   2.
  #     ion occupancy
      ion_occ      2  s   1.
      ion_occ      2  p   1.
  ################################################################################
  #
  #  Suggested additional basis functions. For production calculations,
  #  uncomment them one after another (the most important basis functions are
  #  listed first).
  #
  #  Constructed for dimers: 1.0 A, 1.25 A, 1.5 A, 2.0 A, 3.0 A
  #
  ################################################################################
  #  "First tier" - improvements: -1214.57 meV to -155.61 meV
       hydro 2 p 1.7
       hydro 3 d 6
       hydro 2 s 4.9
  #  "Second tier" - improvements: -67.75 meV to -5.23 meV
       hydro 4 f 9.8
       hydro 3 p 5.2
       hydro 3 s 4.3
       hydro 5 g 14.4
       hydro 3 d 6.2
  #  "Third tier" - improvements: -2.43 meV to -0.60 meV
  #     hydro 2 p 5.6
  #     hydro 2 s 1.4
  #     hydro 3 d 4.9
  #     hydro 4 f 11.2
  #  "Fourth tier" - improvements: -0.39 meV to -0.18 meV
  #     hydro 2 p 2.1
  #     hydro 5 g 16.4
  #     hydro 4 d 13.2
  #     hydro 3 s 13.6
  #     hydro 4 f 17.6
  #  Further basis functions - improvements: -0.08 meV and below
  #     hydro 3 s 2
  #     hydro 3 p 6
  #     hydro 4 d 20
  ################################################################################
  #
  # For methods that use the localized form of the "resolution of identity" for
  # the two-electron Coulomb operator (RI_method LVL), particularly Hartree-Fock and
  # hybrid density functional calculations, the highest accuracy can be obtained by
  # uncommenting the line beginning with "for_aux"  below, thus adding an extra g radial
  # function to the construction of the product basis set for the expansion.
  # See Ref. New J. Phys. 17, 093020 (2015) for more information, particularly Figs. 1 and 6.
  #
  ################################################################################
  #
  # for_aux hydro 5 g 6.0
  
  
  ################################################################################
  #
  #  FHI-aims code project
  #  Volker Blum, Fritz Haber Institute Berlin, 2009
  #
  #  Suggested "tight" defaults for O atom (to be pasted into control.in file)
  #
  ################################################################################
    species        O
  #     global species definitions
      nucleus             8
      mass                15.9994
  #
      l_hartree           6
  #
      cut_pot             4.0  2.0  1.0
      basis_dep_cutoff    1e-4
  #
      radial_base         36 7.0
      radial_multiplier   2
       angular_grids specified
        division   0.1817   50
        division   0.3417  110
        division   0.4949  194
        division   0.6251  302
        division   0.8014  434
  #      division   0.8507  590
  #      division   0.8762  770
  #      division   0.9023  974
  #      division   1.2339 1202
  #      outer_grid 974
        outer_grid  434
  ################################################################################
  #
  #  Definition of "minimal" basis
  #
  ################################################################################
  #     valence basis states
      valence      2  s   2.
      valence      2  p   4.
  #     ion occupancy
      ion_occ      2  s   1.
      ion_occ      2  p   3.
  ################################################################################
  #
  #  Suggested additional basis functions. For production calculations,
  #  uncomment them one after another (the most important basis functions are
  #  listed first).
  #
  #  Constructed for dimers: 1.0 A, 1.208 A, 1.5 A, 2.0 A, 3.0 A
  #
  ################################################################################
  #  "First tier" - improvements: -699.05 meV to -159.38 meV
       hydro 2 p 1.8
       hydro 3 d 7.6
       hydro 3 s 6.4
  #  "Second tier" - improvements: -49.91 meV to -5.39 meV
       hydro 4 f 11.6
       hydro 3 p 6.2
       hydro 3 d 5.6
       hydro 5 g 17.6
       hydro 1 s 0.75
  #  "Third tier" - improvements: -2.83 meV to -0.50 meV
  #     ionic 2 p auto
  #     hydro 4 f 10.8
  #     hydro 4 d 4.7
  #     hydro 2 s 6.8
  #  "Fourth tier" - improvements: -0.40 meV to -0.12 meV
  #     hydro 3 p 5
  #     hydro 3 s 3.3
  #     hydro 5 g 15.6
  #     hydro 4 f 17.6
  #     hydro 4 d 14
  # Further basis functions - -0.08 meV and below
  #     hydro 3 s 2.1
  #     hydro 4 d 11.6
  #     hydro 3 p 16
  #     hydro 2 s 17.2
  ################################################################################
  #
  # For methods that use the localized form of the "resolution of identity" for
  # the two-electron Coulomb operator (RI_method LVL), particularly Hartree-Fock and
  # hybrid density functional calculations, the highest accuracy can be obtained by
  # uncommenting the line beginning with "for_aux"  below, thus adding an extra g radial
  # function to the construction of the product basis set for the expansion.
  # See Ref. New J. Phys. 17, 093020 (2015) for more information, particularly Figs. 1 and 6.
  #
  ################################################################################
  #
  # for_aux hydro 5 g 6.0
  
  -----------------------------------------------------------------------
  Completed first pass over input file control.in .
  -----------------------------------------------------------------------
  
  
  -----------------------------------------------------------------------
  Parsing geometry.in (first pass over file, find array dimensions only).
  The contents of geometry.in will be repeated verbatim below
  unless switched off by setting 'verbatim_writeout .false.' .
  in the first line of geometry.in .
  -----------------------------------------------------------------------
  
  atom       0.00024709     -1.33066969      0.00037157 O
  atom       0.00000541     -0.10818200      0.00031075 C
  atom       1.29133866      0.68940320     -0.00002192 C
  atom      -1.29164136      0.68889316     -0.00003388 C
  atom       1.33506946      1.34303991     -0.88440675 H
  atom       1.33335332      1.34761364      0.88099129 H
  atom       2.15094634      0.01097275      0.00232731 H
  atom      -2.15098338      0.01012676      0.00232429 H
  atom      -1.33562370      1.34249845     -0.88442980 H
  atom      -1.33391184      1.34710382      0.88096714 H
  
  -----------------------------------------------------------------------
  Completed first pass over input file geometry.in .
  -----------------------------------------------------------------------
  

  Basic array size parameters:
  | Number of species                 :        3
  | Number of atoms                   :       10
  | Max. basis fn. angular momentum   :        4
  | Max. atomic/ionic basis occupied n:        2
  | Max. number of basis fn. types    :        2
  | Max. radial fns per species/type  :        8
  | Max. logarithmic grid size        :     1301
  | Max. radial integration grid size :       73
  | Max. angular integration grid size:      434
  | Max. angular grid division number :        8
  | Radial grid for Hartree potential :     1301
  | Number of spin channels           :        1

------------------------------------------------------------
          Reading file control.in.
------------------------------------------------------------
  XC: Using PBE gradient-corrected functionals.
  Scalar relativistic treatment of kinetic energy: on-site free-atom approximation to ZORA.
  Spin treatment: No spin polarisation.
  Geometry relaxation: Modified BFGS - TRM (trust radius method) for lattice optimization.
  Convergence accuracy for geometry relaxation: Maximum force <   0.500000E-02 eV/A.
 
  Reading configuration options for species H                   .
  | Found nuclear charge :   1.0000
  | Found atomic mass :    1.00794000000000      amu
  | Found l_max for Hartree potential  :   6
  | Found cutoff potl. onset [A], width [A], scale factor :    4.00000    2.00000    1.00000
  | Threshold for basis-dependent cutoff potential is   0.100000E-03
  | Found data for basic radial integration grid :    24 points, outermost radius =    7.000 A
  | Found multiplier for basic radial grid :   2
  | Found angular grid specification: user-specified.
  | Specified grid contains     6 separate shells.
  | Check grid settings after all constraints further below.
  | Found free-atom valence shell :  1 s   1.000
  | No ionic wave fns used. Skipping ion_occ.
  | Found hydrogenic basis function :  2 s   2.100
  | Found hydrogenic basis function :  2 p   3.500
  | Found hydrogenic basis function :  1 s   0.850
  | Found hydrogenic basis function :  2 p   3.700
  | Found hydrogenic basis function :  2 s   1.200
  | Found hydrogenic basis function :  3 d   7.000
 | Encountered keyword species, ending the description of species H                   .
  Species H                   : Missing cutoff potential type.
  Defaulting to exp(1/x)/(1-x)^2 type cutoff potential.
  Species H : No 'logarithmic' tag. Using default grid for free atom:
  | Default logarithmic grid data [bohr] : 0.1000E-03 0.1000E+03 0.1012E+01
  Species H : On-site basis accuracy parameter (for Gram-Schmidt orthonormalisation) not specified.
  Using default value basis_acc =  0.1000000E-03.
  Species H                   : Using default innermost maximum threshold i_radial=  2 for radial functions.
  Species H                   : Default cutoff onset for free atom density etc. : 0.40000000E+01 AA.
  Species H                   : Basic radial grid will be enhanced according to radial_multiplier =   2, to contain    49 grid points.
 
  Reading configuration options for species C                   .
  | Found nuclear charge :   6.0000
  | Found atomic mass :    12.0107000000000      amu
  | Found l_max for Hartree potential  :   6
  | Found cutoff potl. onset [A], width [A], scale factor :    4.00000    2.00000    1.00000
  | Threshold for basis-dependent cutoff potential is   0.100000E-03
  | Found data for basic radial integration grid :    34 points, outermost radius =    7.000 A
  | Found multiplier for basic radial grid :   2
  | Found angular grid specification: user-specified.
  | Specified grid contains     6 separate shells.
  | Check grid settings after all constraints further below.
  | Found free-atom valence shell :  2 s   2.000
  | Found free-atom valence shell :  2 p   2.000
  | No ionic wave fns used. Skipping ion_occ.
  | No ionic wave fns used. Skipping ion_occ.
  | Found hydrogenic basis function :  2 p   1.700
  | Found hydrogenic basis function :  3 d   6.000
  | Found hydrogenic basis function :  2 s   4.900
  | Found hydrogenic basis function :  4 f   9.800
  | Found hydrogenic basis function :  3 p   5.200
  | Found hydrogenic basis function :  3 s   4.300
  | Found hydrogenic basis function :  5 g  14.400
  | Found hydrogenic basis function :  3 d   6.200
 | Encountered keyword species, ending the description of species C                   .
  Species C                   : Missing cutoff potential type.
  Defaulting to exp(1/x)/(1-x)^2 type cutoff potential.
  Species C : No 'logarithmic' tag. Using default grid for free atom:
  | Default logarithmic grid data [bohr] : 0.1000E-03 0.1000E+03 0.1012E+01
  Species C : On-site basis accuracy parameter (for Gram-Schmidt orthonormalisation) not specified.
  Using default value basis_acc =  0.1000000E-03.
  Species C                   : Using default innermost maximum threshold i_radial=  2 for radial functions.
  Species C                   : Default cutoff onset for free atom density etc. : 0.40000000E+01 AA.
  Species C                   : Basic radial grid will be enhanced according to radial_multiplier =   2, to contain    69 grid points.
 
  Reading configuration options for species O                   .
  | Found nuclear charge :   8.0000
  | Found atomic mass :    15.9994000000000      amu
  | Found l_max for Hartree potential  :   6
  | Found cutoff potl. onset [A], width [A], scale factor :    4.00000    2.00000    1.00000
  | Threshold for basis-dependent cutoff potential is   0.100000E-03
  | Found data for basic radial integration grid :    36 points, outermost radius =    7.000 A
  | Found multiplier for basic radial grid :   2
  | Found angular grid specification: user-specified.
  | Specified grid contains     6 separate shells.
  | Check grid settings after all constraints further below.
  | Found free-atom valence shell :  2 s   2.000
  | Found free-atom valence shell :  2 p   4.000
  | No ionic wave fns used. Skipping ion_occ.
  | No ionic wave fns used. Skipping ion_occ.
  | Found hydrogenic basis function :  2 p   1.800
  | Found hydrogenic basis function :  3 d   7.600
  | Found hydrogenic basis function :  3 s   6.400
  | Found hydrogenic basis function :  4 f  11.600
  | Found hydrogenic basis function :  3 p   6.200
  | Found hydrogenic basis function :  3 d   5.600
  | Found hydrogenic basis function :  5 g  17.600
  | Found hydrogenic basis function :  1 s   0.750
  Species O                   : Missing cutoff potential type.
  Defaulting to exp(1/x)/(1-x)^2 type cutoff potential.
  Species O : No 'logarithmic' tag. Using default grid for free atom:
  | Default logarithmic grid data [bohr] : 0.1000E-03 0.1000E+03 0.1012E+01
  Species O : On-site basis accuracy parameter (for Gram-Schmidt orthonormalisation) not specified.
  Using default value basis_acc =  0.1000000E-03.
  Species O                   : Using default innermost maximum threshold i_radial=  2 for radial functions.
  Species O                   : Default cutoff onset for free atom density etc. : 0.40000000E+01 AA.
  Species O                   : Basic radial grid will be enhanced according to radial_multiplier =   2, to contain    73 grid points.
 
  Finished reading input file 'control.in'.
 
------------------------------------------------------------


------------------------------------------------------------
          Reading geometry description geometry.in.
------------------------------------------------------------
  | The smallest distance between any two atoms is         1.09507904 AA.
  | The first atom of this pair is atom number                      4 .
  | The second atom of this pair is atom number                     8 .
  Input structure read successfully.
  The structure contains       10 atoms,  and a total of         32.000 electrons.

  Input geometry:
  | No unit cell requested.
  | Atomic structure:
  |       Atom                x [A]            y [A]            z [A]
  |    1: Species O             0.00024709       -1.33066969        0.00037157
  |    2: Species C             0.00000541       -0.10818200        0.00031075
  |    3: Species C             1.29133866        0.68940320       -0.00002192
  |    4: Species C            -1.29164136        0.68889316       -0.00003388
  |    5: Species H             1.33506946        1.34303991       -0.88440675
  |    6: Species H             1.33335332        1.34761364        0.88099129
  |    7: Species H             2.15094634        0.01097275        0.00232731
  |    8: Species H            -2.15098338        0.01012676        0.00232429
  |    9: Species H            -1.33562370        1.34249845       -0.88442980
  |   10: Species H            -1.33391184        1.34710382        0.88096714

  Slab Identifier: This is not a periodic structure.
 
  Finished reading input file 'geometry.in'.
 

 
  Consistency checks for stacksize environment parameter are next.
 
  | Maximum stacksize for task 0: unlimited
  | Maximum stacksize for task 1: unlimited
  | Maximum stacksize for task 2: unlimited
  | Maximum stacksize for task 3: unlimited
  | Maximum stacksize for task 4: unlimited
  | Maximum stacksize for task 5: unlimited
  | Maximum stacksize for task 6: unlimited
  | Maximum stacksize for task 7: unlimited
  | Maximum stacksize for task 8: unlimited
  | Maximum stacksize for task 9: unlimited
  | Maximum stacksize for task 10: unlimited
  | Maximum stacksize for task 11: unlimited
  | Maximum stacksize for task 12: unlimited
  | Maximum stacksize for task 13: unlimited
  | Maximum stacksize for task 14: unlimited
  | Maximum stacksize for task 15: unlimited
  | Maximum stacksize for task 16: unlimited
  | Maximum stacksize for task 17: unlimited
  | Maximum stacksize for task 18: unlimited
  | Maximum stacksize for task 19: unlimited
  | Current stacksize for task 0: unlimited
  | Current stacksize for task 1: unlimited
  | Current stacksize for task 2: unlimited
  | Current stacksize for task 3: unlimited
  | Current stacksize for task 4: unlimited
  | Current stacksize for task 5: unlimited
  | Current stacksize for task 6: unlimited
  | Current stacksize for task 7: unlimited
  | Current stacksize for task 8: unlimited
  | Current stacksize for task 9: unlimited
  | Current stacksize for task 10: unlimited
  | Current stacksize for task 11: unlimited
  | Current stacksize for task 12: unlimited
  | Current stacksize for task 13: unlimited
  | Current stacksize for task 14: unlimited
  | Current stacksize for task 15: unlimited
  | Current stacksize for task 16: unlimited
  | Current stacksize for task 17: unlimited
  | Current stacksize for task 18: unlimited
  | Current stacksize for task 19: unlimited
 
  Consistency checks for the contents of control.in are next.
 
  MPI_IN_PLACE appears to work with this MPI implementation.
  | Keeping use_mpi_in_place .true. (see manual).
  Target number of points in a grid batch is not set. Defaulting to  100
  Method for grid partitioning is not set. Defaulting to parallel hash+maxmin partitioning.
  Batch size limit is not set. Defaulting to    200
  By default, will store active basis functions for each batch.
  If in need of memory, prune_basis_once .false. can be used to disable this option.
  communication_type for Hartree potential was not specified.
  Defaulting to calc_hartree .
  Defaulting to Pulay charge density mixer.
  Pulay mixer: Number of relevant iterations not set.
  Defaulting to    8 iterations.
  Pulay mixer: Number of initial linear mixing iterations not set.
  Defaulting to    0 iterations.
  Work space size for distributed Hartree potential not set.
  Defaulting to   0.200000E+03 MB.
  Mixing parameter for charge density mixing has not been set.
  Using default: charge_mix_param =     0.0500.
  The mixing parameter will be adjusted in iteration number     2 of each s.c.f. cycle (i.e., each geometry step).
  Algorithm-dependent basis array size parameters:
  | n_max_pulay                         :        8
  Maximum number of self-consistency iterations not provided.
  Presetting  1000 iterations.
  Presetting      1001 iterations before the initial mixing cycle
  is restarted anyway using the sc_init_iter criterion / keyword.
  Presetting a factor      1.000 between actual scf density residual
  and density convergence criterion sc_accuracy_rho below which sc_init_iter
  takes no effect.
 * No s.c.f. convergence criteria (sc_accuracy_*) were provided in control.in.
 * The run will proceed with a reasonable default guess, but please check whether.
 * the s.c.f. cycles seem to take too much or too little time.
  No maximum number of relaxation steps, defaulting to     1000
  Default initial Hessian is Lindh matrix (thres = 15.00) plus  0.200000E+01 eV/A^2 times unity.
  No maximum energy tolerance for TRM/BFGS moves, defaulting to   0.150000E-02
  Maximum energy tolerance by which TRM/BFGS trajectory may increase over multiple steps:   0.300000E-02
  No harmonic length scale. Defaulting to   0.250000E-01 A.
  No trust radius initializer. Defaulting to   0.200000E+00 A.
  Forces evaluation will include force correction term due to incomplete self-consistency (default).
 * Notice: The s.c.f. convergence criterion sc_accuracy_rho was not provided.
 * We used to stop in this case, and ask the user to provide reasonable
 * scf convergence criteria. However, this led some users to employ criteria
 * that led to extremely long run times, e.g., for simple relaxation.
 * We now preset a default value for sc_accuracy_rho if it is not set.
 * You may still wish to check if this setting is too tight or too loose for your needs.
 * Based on n_atoms and forces and force-correction status, FHI-aims chose sc_accuracy_rho =  0.103280E-04 .
  Force calculation: scf convergence accuracy of forces not set.
  Defaulting to 'sc_accuracy_forces not_checked'.
  Handling of forces: Unphysical translation and rotation will be removed from forces.
  No accuracy limit for integral partition fn. given. Defaulting to  0.1000E-14.
  No threshold value for u(r) in integrations given. Defaulting to  0.1000E-05.
  No occupation type (smearing scheme) given. Defaulting to Gaussian broadening, width =  0.1000E-01 eV.
  The width will be adjusted in iteration number     2 of each s.c.f. cycle (i.e., each geometry step).
  No accuracy for occupation numbers given. Defaulting to  0.1000E-12.
  No threshold value for occupation numbers given. Defaulting to  0.0000E+00.
  No accuracy for fermi level given. Defaulting to  0.1000E-19.
  Maximum # of iterations to find E_F not set. Defaulting to  200.
  Preferred method for the eigenvalue solver ('KS_method') not specified in 'control.in'.
  Calling BLACS routine to test compilation state
  Since ScaLAPACK support is enabled, defaulting to ELPA (via ELSI).
  Will not use alltoall communication since running on < 1024 CPUs.
  Threshold for basis singularities not set.
  Default threshold for basis singularities:  0.1000E-04
  partition_type (choice of integration weights) for integrals was not specified.
  | Using a version of the partition function of Stratmann and coworkers ('stratmann_sparse').
  | At each grid point, the set of atoms used to build the partition table is smoothly restricted to
  | only those atoms whose free-atom density would be non-zero at that grid point.
  Partitioning for Hartree potential was not defined. Using partition_type for integrals.
  | Adjusted default value of keyword multip_moments_threshold to:       0.10000000E-11
  | This value may affect high angular momentum components of the Hartree potential in periodic systems.
  No q(lm)/r^(l+1) cutoff set for long-range Hartree potential.
  | Using default value of  0.100000E-09 .
  | Verify using the multipole_threshold keyword.
  Defaulting to new monopole extrapolation.
  Density update method: automatic selection selected.
  Geometry relaxation: A file "geometry.in.next_step" is written out by default after each step.
  | This file contains the geometry of the current relaxation step as well as
  | the current Hessian matrix needed to restart the relaxation algorithm.
  | If you do not want part or all of this information, use the keywords
  | "write_restart_geometry" or "hessian_to_restart_geometry" to switch the output off.
  Charge integration errors on the 3D integration grid will be compensated
  by explicit normalization and distribution of residual charges.
  Use the "compensate_multipole_errors" flag to change this behaviour.
  Set 'collect_eigenvectors' to be '.true.' for use_density_matrix .false.
  Found potential conflicts with setting 'use_local_index' for this calculation. Will not set it.
 
  Consistency checks for the contents of geometry.in are next.
 
  Number of empty states per atom not set in control.in - providing a guess from actual geometry.
  | Total number of empty states used during s.c.f. cycle:       21
  If you use a very high smearing, use empty_states (per atom!) in control.in to increase this value.

  Structure-dependent array size parameters: 
  | Maximum number of distinct radial functions  :       29
  | Maximum number of basis functions            :      246
  | Number of Kohn-Sham states (occupied + empty):       37
------------------------------------------------------------
  After read_input_data [GB]:    925.75

  Performing system and environment tests:
  *** Environment variable OMP_NUM_THREADS is not set
  *** For performance reasons you might want to set it to 1
  | Checking for ScaLAPACK...
  | Testing pdtran()...
  | All pdtran() tests passed.
  After prepare_system [GB]:    925.60

------------------------------------------------------------
          Preparing all fixed parts of the calculation.
------------------------------------------------------------
  Determining machine precision:
    2.225073858507201E-308
  Setting up grids for atomic and cluster calculations.

  Creating wave function, potential, and density for free atoms.
  Runtime choices for atomic solver:
  | atomic solver xc        : PBE
  | compute density gradient: 1
  | compute kinetic density : F

  Species: H

  List of occupied orbitals and eigenvalues:
    n    l              occ      energy [Ha]    energy [eV]
    1    0           1.0000        -0.238386        -6.4868


  Species: C

  List of occupied orbitals and eigenvalues:
    n    l              occ      energy [Ha]    energy [eV]
    1    0           2.0000       -10.049212      -273.4530
    2    0           2.0000        -0.504761       -13.7352
    2    1           2.0000        -0.193631        -5.2690


  Species: O

  List of occupied orbitals and eigenvalues:
    n    l              occ      energy [Ha]    energy [eV]
    1    0           2.0000       -18.927378      -515.0401
    2    0           2.0000        -0.880539       -23.9607
    2    1           4.0000        -0.331811        -9.0290


  Adding cutoff potential to free-atom effective potential.
  Creating fixed part of basis set: Ionic, confined, hydrogenic.
 
  H                    hydrogenic:
 
  List of hydrogenic basis orbitals: 
    n    l      effective z      eigenvalue [eV]  inner max. [A]     outer max. [A]     outer radius [A]   
    2    0         2.100000       -14.9965           0.193243           1.317208           5.373006
    2    1         3.500000       -41.6672           0.602369           0.602369           4.056063
    1    0         0.850000        -9.8292           0.624871           0.624871           5.373006
    2    1         3.700000       -46.5653           0.573622           0.573622           3.910002
    2    0         1.200000        -4.5995           0.334980           2.228188           5.505995
    3    2         7.000000       -74.0753           0.680699           0.680699           3.769201
 
 
  C                    hydrogenic:
 
  List of hydrogenic basis orbitals: 
    n    l      effective z      eigenvalue [eV]  inner max. [A]     outer max. [A]     outer radius [A]   
    2    1         1.700000        -9.8152           1.245706           1.245706           5.401630
    3    2         6.000000       -54.4226           0.792453           0.792453           4.178599
    2    0         4.900000       -81.6681           0.082559           0.562749           3.353238
    4    3         9.800000       -81.6681           0.863254           0.863254           4.028125
    3    1         5.200000       -40.8774           0.305389           1.215618           4.898362
    3    0         4.300000       -27.9508           0.091041           1.610311           5.401630
    5    4        14.400000      -112.8510           0.917666           0.917666           3.883070
    3    2         6.200000       -58.1113           0.763917           0.763917           4.077671
 
 
  O                    hydrogenic:
 
  List of hydrogenic basis orbitals: 
    n    l      effective z      eigenvalue [eV]  inner max. [A]     outer max. [A]     outer radius [A]   
    2    1         1.800000       -11.0118           1.178562           1.178562           5.432602
    3    2         7.600000       -87.3182           0.624125           0.624125           3.541477
    3    0         6.400000       -61.9209           0.061167           1.081902           4.306578
    4    3        11.600000      -114.4238           0.731631           0.731631           3.585037
    3    1         6.200000       -58.1113           0.255680           1.030270           4.306578
    3    2         5.600000       -47.4081           0.847233           0.847233           4.413171
    5    4        17.600000      -168.5799           0.749740           0.749740           3.372465
    1    0         0.750000        -7.6499           0.705284           0.705284           5.366593
 
  Creating atomic-like basis functions for current effective potential.

  Species H                   :

  List of atomic basis orbitals and eigenvalues:
    n    l      energy [Ha]    energy [eV]    outer radius [A]
    1    0        -0.238386        -6.4868       5.373006


  Species C                   :

  List of atomic basis orbitals and eigenvalues:
    n    l      energy [Ha]    energy [eV]    outer radius [A]
    1    0       -10.049212      -273.4530       1.934409
    2    0        -0.504761       -13.7352       5.271162
    2    1        -0.193631        -5.2690       5.401630


  Species O                   :

  List of atomic basis orbitals and eigenvalues:
    n    l      energy [Ha]    energy [eV]    outer radius [A]
    1    0       -18.927378      -515.0401       1.415765
    2    0        -0.880539       -23.9607       5.048385
    2    1        -0.331811        -9.0290       5.301386

  Assembling full basis from fixed parts.
  | Species H :   atomic orbital   1 s accepted.
  | Species H :    hydro orbital   2 s accepted.
  | Species H :    hydro orbital   1 s accepted.
  | Species H :    hydro orbital   2 s accepted.
  | Species H :    hydro orbital   2 p accepted.
  | Species H :    hydro orbital   2 p accepted.
  | Species H :    hydro orbital   3 d accepted.
  | Species C :   atomic orbital   1 s accepted.
  | Species C :    hydro orbital   2 s accepted.
  | Species C :   atomic orbital   2 s accepted.
  | Species C :    hydro orbital   3 s accepted.
  | Species C :    hydro orbital   3 p accepted.
  | Species C :   atomic orbital   2 p accepted.
  | Species C :    hydro orbital   2 p accepted.
  | Species C :    hydro orbital   3 d accepted.
  | Species C :    hydro orbital   3 d accepted.
  | Species C :    hydro orbital   4 f accepted.
  | Species C :    hydro orbital   5 g accepted.
  | Species O :   atomic orbital   1 s accepted.
  | Species O :    hydro orbital   3 s accepted.
  | Species O :   atomic orbital   2 s accepted.
  | Species O :    hydro orbital   1 s accepted.
  | Species O :    hydro orbital   3 p accepted.
  | Species O :   atomic orbital   2 p accepted.
  | Species O :    hydro orbital   2 p accepted.
  | Species O :    hydro orbital   3 d accepted.
  | Species O :    hydro orbital   3 d accepted.
  | Species O :    hydro orbital   4 f accepted.
  | Species O :    hydro orbital   5 g accepted.
 
  Basis size parameters after reduction:
  | Total number of radial functions:       29
  | Total number of basis functions :      246
 
  Per-task memory consumption for arrays in subroutine allocate_ext:
  |           9.666580MB.
  Testing on-site integration grid accuracy.
  |  Species  Function  <phi|h_atom|phi> (log., in eV)  <phi|h_atom|phi> (rad., in eV)
           1        1                 -6.4870767962                 -6.4871688290
           1        2                 13.5032046589                 13.5028982997
           1        3                 32.8195184817                 32.8119941656
           1        4                 33.8513856511                 33.7670005767 ***
           1        5                 28.8544614965                 28.8544615203
           1        6                 59.6326952547                 59.6327656460
           1        7                 60.2719308513                 60.2719305949
           2        8               -273.4529725981               -273.4529710451
           2        9                -10.7721037329                -10.7721022102
           2       10                 17.6044132585                 17.6044162052
           2       11                 53.7706460564                 53.7706913681
           2       12                 15.0973290351                 15.0973256011
           2       13                  3.8545134677                  3.8545724657
           2       14                 12.1156992586                 12.1182024423
           2       15                 29.4352039288                 29.4352041805
           2       16                 54.8741144697                 54.8740268719
           2       17                 59.3556032036                 59.3556031370
           2       18                 93.4551837140                 93.4551837996
           3       19               -515.0401491148               -515.0401445497
           3       20                 15.1629302771                 15.1629233102
           3       21                -21.6127103295                -21.6127145449
           3       22                 14.4001435709                 14.4001765990
           3       23                 20.8862585187                 20.8862589491
           3       24                 -2.4803658578                 -2.4803665016
           3       25                 13.8586387760                 13.8586021622
           3       26                 45.8331828879                 45.8331828941
           3       27                 52.1851961049                 52.1851977023
           3       28                 85.4133898762                 85.4133899074
           3       29                142.1023296234                142.1023296272
 * Note: Onsite integrals marked "***" above are less accurate than
 * onsite_accuracy_threshold =    0.03000 eV. Usually, this is harmless.
 * When in doubt, tighten the "radial" and/or "radial_multiplier" flags to check.

  Preparing densities etc. for the partition functions (integrals / Hartree potential).

  Preparations completed.
  max(cpu_time)          :      0.298 s.
  Wall clock time (cpu1) :      0.290 s.
------------------------------------------------------------
  After prepare_scf [GB]:    925.02

  Initializing index lists of integration centers etc. from given atomic structure:
  | Number of centers in hartree potential         :        10
  | Number of centers in hartree multipole         :        10
  | Number of centers in electron density summation:        10
  | Number of centers in basis integrals           :        10
  | Number of centers in integrals                 :        10
  | Number of centers in hamiltonian               :        10
  After initialize_bc_dependent_lists [GB]:    925.04

------------------------------------------------------------
          Begin self-consistency loop: Initialization.

          Date     :  20250306, Time     :  150225.453
------------------------------------------------------------

  Initializing relaxation algorithms.
  Finished initialization of distributed Hessian storage.
  | Global dimension:        30
  | BLACS block size:         2
  | Number of workers:       15

  Available memory per node after initialize_hartree_non_periodic_ewald [GB]:    925.04
  Available memory per node after initialize_recip_hartree_potential [GB]:    925.04
  * Using 20 tasks for Scalapack Eigenvalue solver.
  Detailed listing of tasks and assigned k-points:
  (for non-periodic systems, the "k-point" denotes an internal label only)
   Task     0 k-point     1 on RSL-arvutus
   Task     1 k-point     1 on RSL-arvutus
   Task     2 k-point     1 on RSL-arvutus
   Task     3 k-point     1 on RSL-arvutus
   Task     4 k-point     1 on RSL-arvutus
   Task     5 k-point     1 on RSL-arvutus
   Task     6 k-point     1 on RSL-arvutus
   Task     7 k-point     1 on RSL-arvutus
   Task     8 k-point     1 on RSL-arvutus
   Task     9 k-point     1 on RSL-arvutus
   Task    10 k-point     1 on RSL-arvutus
   Task    11 k-point     1 on RSL-arvutus
   Task    12 k-point     1 on RSL-arvutus
   Task    13 k-point     1 on RSL-arvutus
   Task    14 k-point     1 on RSL-arvutus
   Task    15 k-point     1 on RSL-arvutus
   Task    16 k-point     1 on RSL-arvutus
   Task    17 k-point     1 on RSL-arvutus
   Task    18 k-point     1 on RSL-arvutus
   Task    19 k-point     1 on RSL-arvutus
  Tasks:    20 split into      5 X      4 BLACS grid
  Calculating block size based on n_basis =          246  max_nprow =            5  max_npcol =            4
  ScaLAPACK block size set to:           16
  Allocating        0.026 MB for ovlp
  Allocating        0.026 MB for ham
  Allocating        0.026 MB for eigenvec
  Required Scalapack workspace - INTEGER:            1  REAL:             1
  Available memory per node after initialize_scalapack [GB]:    925.04
  Available memory per node after aims_elsi_init_scf [GB]:    925.04
  Available memory per node after initialize_fixed_grids [GB]:    925.04
  Partitioning the integration grid into batches with parallel hashing+maxmin method.
  | Number of batches:     1965
  | Maximal batch size:     198
  | Minimal batch size:      50
  | Average batch size:      81.970
  | Standard deviation of batch sizes:      24.680

  Integration load balanced across    20 MPI tasks.
  Work distribution over tasks is as follows:
  Task     0 has       8084 integration points.
  Task     1 has       7991 integration points.
  Task     2 has       8002 integration points.
  Task     3 has       8001 integration points.
  Task     4 has       8024 integration points.
  Task     5 has       7999 integration points.
  Task     6 has       8009 integration points.
  Task     7 has       8165 integration points.
  Task     8 has       8101 integration points.
  Task     9 has       7994 integration points.
  Task    10 has       8075 integration points.
  Task    11 has       8153 integration points.
  Task    12 has       8081 integration points.
  Task    13 has       7998 integration points.
  Task    14 has       8094 integration points.
  Task    15 has       7990 integration points.
  Task    16 has       8160 integration points.
  Task    17 has       8019 integration points.
  Task    18 has       8137 integration points.
  Task    19 has       7995 integration points.
  Available memory per node after partition_grid [GB]:    925.01
  Initializing partition tables, free-atom densities, potentials, etc. across the integration grid (initialize_grid_storage).
  | initialize_grid_storage: Actual outermost partition radius vs. multipole_radius_free
  | (-- VB: in principle, multipole_radius_free should be larger, hence this output)
  | Species        1: Confinement radius =              6.000000000000000 AA, multipole_radius_free =              6.071692442739658 AA.
  | Species        1: outer_partition_radius set to              6.071692442739658 AA .
  | Species        2: Confinement radius =              6.000000000000000 AA, multipole_radius_free =              6.029870734432609 AA.
  | Species        2: outer_partition_radius set to              6.029870734432609 AA .
  | Species        3: Confinement radius =              6.000000000000000 AA, multipole_radius_free =              6.064445521808699 AA.
  | Species        3: outer_partition_radius set to              6.064445521808699 AA .
  | The sparse table of interatomic distances needs          1.12 kbyte instead of         0.80 kbyte of memory.
  | Using the partition_type stratmann_smoother will reduce your memory usage.
  | Net number of integration points:   161072
  | of which are non-zero points    :   133700
  Available memory per node after initialize_grid_storage_p1 [GB]:    924.94
  Renormalizing the initial density to the exact electron count on the 3D integration grid.
  | Initial density: Formal number of electrons (from input files) :      32.0000000000
  | Integrated number of electrons on 3D grid     :      32.0000019899
  | Charge integration error                      :       0.0000019899
  | Normalization factor for density and gradient :       0.9999999378
  Renormalizing the free-atom superposition density to the exact electron count on the 3D integration grid.
  | Formal number of electrons (from input files) :      32.0000000000
  | Integrated number of electrons on 3D grid     :      32.0000019899
  | Charge integration error                      :       0.0000019899
  | Normalization factor for density and gradient :       0.9999999378
  Obtaining max. number of non-zero basis functions in each batch (get_n_compute_maxes).
  | Maximal number of non-zero basis functions:      246 in task     0
  | Maximal number of non-zero basis functions:      246 in task     1
  | Maximal number of non-zero basis functions:      246 in task     2
  | Maximal number of non-zero basis functions:      246 in task     3
  | Maximal number of non-zero basis functions:      246 in task     4
  | Maximal number of non-zero basis functions:      246 in task     5
  | Maximal number of non-zero basis functions:      246 in task     6
  | Maximal number of non-zero basis functions:      246 in task     7
  | Maximal number of non-zero basis functions:      246 in task     8
  | Maximal number of non-zero basis functions:      246 in task     9
  | Maximal number of non-zero basis functions:      246 in task    10
  | Maximal number of non-zero basis functions:      246 in task    11
  | Maximal number of non-zero basis functions:      246 in task    12
  | Maximal number of non-zero basis functions:      246 in task    13
  | Maximal number of non-zero basis functions:      246 in task    14
  | Maximal number of non-zero basis functions:      246 in task    15
  | Maximal number of non-zero basis functions:      246 in task    16
  | Maximal number of non-zero basis functions:      246 in task    17
  | Maximal number of non-zero basis functions:      246 in task    18
  | Maximal number of non-zero basis functions:      246 in task    19
  Selecting the method for density update.
  Loop over occupied states selected for charge density update.
  Available memory per node after get_n_compute_maxes_p1 [GB]:    924.93
  Allocating        0.069 MB for KS_eigenvector
  Available memory per node after allocate_matrices [GB]:    924.93
  Available memory per node after init_comm_sparse_local_matrix_scalapack [GB]:    924.93
  Integrating Hamiltonian matrix: batch-based integration.
  Time summed over all CPUs for integration: real work        2.065 s, elapsed        3.266 s => Consider using load balancing!
  Available memory per node after integrate hamiltonian matrix [GB]:    924.89
  Integrating overlap matrix.
  Time summed over all CPUs for integration: real work        1.107 s, elapsed        1.594 s
  Available memory per node after integrate ovlp matrix [GB]:    924.89
  Available memory per node after ASI_callbacks invoke [GB]:    924.89
  Deallocating overlap matrix.
  Available memory per node after save_overlap_scalapack [GB]:    924.89

  Updating Kohn-Sham eigenvalues and eigenvectors using ELSI and the ELPA eigensolver.
  Overlap matrix is not singular
  | Lowest and highest eigenvalues :  0.1723E-03,  0.7276E+01
  Finished singularity check of overlap matrix
  | Time :     0.022 s
  Starting ELPA eigensolver
  Finished Cholesky decomposition
  | Time :     0.013 s
  Finished transformation to standard eigenproblem
  | Time :     0.004 s
  Finished solving standard eigenproblem
  | Time :     0.015 s
  Finished back-transformation of eigenvectors
  | Time :     0.002 s

  Obtaining occupation numbers and electronic chemical potential using ELSI.
  | Note that, for insulating systems, the printed 'chemical potential' value is not uniquely defined.
  | It can be anywhere in the energy gap, as long as it correctly separates occupied and unoccupied states.
  | In systems with a gap, the physically relevant chemical potential is the VBM or HOMO.

  Residual electron error for mid-point Fermi level : 0.0000000000000000E+000
  ELSI found chemical potential half-way between HOMO and LUMO.
  | Chemical potential (Fermi level):    -7.84488952 eV
  Available memory per node after advance_KS_solution [GB]:    924.89
  Writing Kohn-Sham eigenvalues.

  State    Occupation    Eigenvalue [Ha]    Eigenvalue [eV]
      1       2.00000         -19.004669         -517.14335
      2       2.00000         -10.178341         -276.96675
      3       2.00000         -10.178341         -276.96675
      4       2.00000         -10.142219         -275.98383
      5       2.00000          -1.129395          -30.73241
      6       2.00000          -0.872058          -23.72989
      7       2.00000          -0.823960          -22.42110
      8       2.00000          -0.646772          -17.59957
      9       2.00000          -0.580374          -15.79279
     10       2.00000          -0.575371          -15.65664
     11       2.00000          -0.564927          -15.37244
     12       2.00000          -0.523274          -14.23902
     13       2.00000          -0.522252          -14.21121
     14       2.00000          -0.508845          -13.84639
     15       2.00000          -0.465611          -12.66992
     16       2.00000          -0.388967          -10.58433
     17       0.00000          -0.187622           -5.10545
     18       0.00000          -0.063623           -1.73127
     19       0.00000          -0.024131           -0.65664
     20       0.00000          -0.021602           -0.58783
     21       0.00000          -0.013720           -0.37334
     22       0.00000          -0.000048           -0.00131
     23       0.00000           0.004069            0.11071
     24       0.00000           0.018157            0.49409
     25       0.00000           0.023920            0.65089
     26       0.00000           0.054707            1.48864
     27       0.00000           0.060977            1.65927
     28       0.00000           0.069586            1.89353
     29       0.00000           0.094177            2.56269
     30       0.00000           0.103951            2.82864
     31       0.00000           0.115261            3.13641
     32       0.00000           0.152153            4.14030
     33       0.00000           0.153600            4.17967
     34       0.00000           0.157696            4.29112
     35       0.00000           0.190427            5.18178
     36       0.00000           0.202030            5.49752
     37       0.00000           0.208366            5.66993

  Highest occupied state (VBM) at    -10.58433228 eV
  | Occupation number:      2.00000000

  Lowest unoccupied state (CBM) at    -5.10544677 eV
  | Occupation number:      0.00000000

  Overall HOMO-LUMO gap:      5.47888551 eV.
  Calculating total energy contributions from superposition of free atom densities.

  Total energy components:
  | Sum of eigenvalues            :        -114.21075517 Ha       -3107.83277306 eV
  | XC energy correction          :         -26.17727158 Ha        -712.31980216 eV
  | XC potential correction       :          33.63715361 Ha         915.31352037 eV
  | Free-atom electrostatic energy:         -86.63939986 Ha       -2357.57802240 eV
  | Hartree energy correction     :           0.00000000 Ha           0.00000000 eV
  | Entropy correction            :           0.00000000 Ha           0.00000000 eV
  | ---------------------------
  | Total energy                  :        -193.39027300 Ha       -5262.41707726 eV
  | Total energy, T -> 0          :        -193.39027300 Ha       -5262.41707726 eV  <-- do not rely on this value for anything but (periodic) metals
  | Electronic free energy        :        -193.39027300 Ha       -5262.41707726 eV

  Derived energy quantities:
  | Kinetic energy                :         190.82236323 Ha        5192.54069715 eV
  | Electrostatic energy          :        -358.03536466 Ha       -9742.63797225 eV
  | Energy correction for multipole
  | error in Hartree potential    :           0.00000000 Ha           0.00000000 eV
  | Sum of eigenvalues per atom                           :        -310.78327731 eV
  | Total energy (T->0) per atom                          :        -526.24170773 eV  <-- do not rely on this value for anything but (periodic) metals
  | Electronic free energy per atom                       :        -526.24170773 eV
  Initialize hartree_potential_storage
  Max. number of atoms included in rho_multipole:           10

  End scf initialization - timings             :  max(cpu_time)    wall_clock(cpu1)
  | Time for scf. initialization                :        0.472 s           0.480 s
  | Boundary condition initialization           :        0.026 s           0.026 s
  | Relaxation initialization                   :        0.006 s           0.007 s
  | Integration                                 :        0.247 s           0.248 s
  | Solution of K.-S. eqns.                     :        0.067 s           0.070 s
  | Grid partitioning                           :        0.076 s           0.077 s
  | Preloading free-atom quantities on grid     :        0.048 s           0.049 s
  | Free-atom superposition energy              :        0.010 s           0.010 s
  | Total energy evaluation                     :        0.001 s           0.001 s

  Partial memory accounting:
  | Current value for overall tracked memory usage:
  |   Minimum:        0.371 MB (on task 15)
  |   Maximum:        0.391 MB (on task  0)
  |   Average:        0.381 MB
  | Peak value for overall tracked memory usage:
  |   Minimum:        2.185 MB (on task 15 after allocating wave)
  |   Maximum:        2.205 MB (on task  0 after allocating wave)
  |   Average:        2.195 MB
  | Largest tracked array allocation so far:
  |   Minimum:        0.462 MB (hamiltonian_shell on task  0)
  |   Maximum:        0.912 MB (all_coords on task 11)
  |   Average:        0.519 MB
  Note:  These values currently only include a subset of arrays which are explicitly tracked.
  The "true" memory usage will be greater.
------------------------------------------------------------
  Available memory after initialize_scf [GB]:    924.87
  Available memory after allocating mixing [GB]:    924.84
  Evaluating new KS density.
  Integration grid: deviation in total charge (<rho> - N_e) =   7.105427E-15

  Time for density update prior                :  max(cpu_time)    wall_clock(cpu1)
  | self-consistency iterative process          :        0.101 s           0.101 s
  Available memory before start of SCF loop [GB]:    924.81

------------------------------------------------------------
          Begin self-consistency iteration #    1

  Date     :  20250306, Time     :  150226.036
------------------------------------------------------------
  Pulay mixing of updated and previous charge densities.
  Available memory per node after mixing [GB]:    924.81
  Renormalizing the density to the exact electron count on the 3D integration grid.
  | Formal number of electrons (from input files) :      32.0000000000
  | Integrated number of electrons on 3D grid     :      32.0000000000
  | Charge integration error                      :      -0.0000000000
  | Normalization factor for density and gradient :       1.0000000000

  Evaluating partitioned Hartree potential by multipole expansion.
  | Original multipole sum: apparent total charge =  -0.583120E-14
  | Sum of charges compensated after spline to logarithmic grids =   0.320945E-06
  | Analytical far-field extrapolation by fixed multipoles:
  | Hartree multipole sum: apparent total charge =  -0.582351E-14
  Summing up the Hartree potential.
  Time summed over all CPUs for potential: real work        0.022 s, elapsed        0.037 s
  | RMS charge density error from multipole expansion :   0.488024E-03

  Integrating Hamiltonian matrix: batch-based integration.
  Time summed over all CPUs for integration: real work        2.006 s, elapsed        3.226 s => Consider using load balancing!

  Updating Kohn-Sham eigenvalues and eigenvectors using ELSI and the ELPA eigensolver.
  Starting ELPA eigensolver
  Finished transformation to standard eigenproblem
  | Time :     0.004 s
  Finished solving standard eigenproblem
  | Time :     0.014 s
  Finished back-transformation of eigenvectors
  | Time :     0.002 s

  Obtaining occupation numbers and electronic chemical potential using ELSI.
  | Note that, for insulating systems, the printed 'chemical potential' value is not uniquely defined.
  | It can be anywhere in the energy gap, as long as it correctly separates occupied and unoccupied states.
  | In systems with a gap, the physically relevant chemical potential is the VBM or HOMO.

  Residual electron error for mid-point Fermi level : 0.0000000000000000E+000
  ELSI found chemical potential half-way between HOMO and LUMO.
  | Chemical potential (Fermi level):    -7.43264475 eV
  Writing Kohn-Sham eigenvalues.

  State    Occupation    Eigenvalue [Ha]    Eigenvalue [eV]
      1       2.00000         -18.971597         -516.24343
      2       2.00000         -10.145527         -276.07384
      3       2.00000         -10.145527         -276.07383
      4       2.00000         -10.132337         -275.71491
      5       2.00000          -1.111339          -30.24108
      6       2.00000          -0.856548          -23.30785
      7       2.00000          -0.807881          -21.98357
      8       2.00000          -0.631597          -17.18664
      9       2.00000          -0.565124          -15.37782
     10       2.00000          -0.558903          -15.20852
     11       2.00000          -0.551408          -15.00458
     12       2.00000          -0.508888          -13.84755
     13       2.00000          -0.505995          -13.76883
     14       2.00000          -0.493518          -13.42930
     15       2.00000          -0.449682          -12.23648
     16       2.00000          -0.369875          -10.06481
     17       0.00000          -0.176414           -4.80048
     18       0.00000          -0.059370           -1.61554
     19       0.00000          -0.020048           -0.54553
     20       0.00000          -0.014854           -0.40420
     21       0.00000          -0.009254           -0.25182
     22       0.00000           0.009321            0.25362
     23       0.00000           0.009922            0.26998
     24       0.00000           0.024210            0.65880
     25       0.00000           0.027788            0.75614
     26       0.00000           0.059359            1.61523
     27       0.00000           0.064495            1.75501
     28       0.00000           0.076517            2.08214
     29       0.00000           0.099699            2.71296
     30       0.00000           0.111576            3.03613
     31       0.00000           0.121299            3.30072
     32       0.00000           0.156830            4.26755
     33       0.00000           0.160544            4.36862
     34       0.00000           0.161937            4.40653
     35       0.00000           0.196514            5.34742
     36       0.00000           0.209482            5.70030
     37       0.00000           0.214065            5.82501

  Highest occupied state (VBM) at    -10.06480911 eV
  | Occupation number:      2.00000000

  Lowest unoccupied state (CBM) at    -4.80048039 eV
  | Occupation number:      0.00000000

  Overall HOMO-LUMO gap:      5.26432872 eV.

  Total energy components:
  | Sum of eigenvalues            :        -113.61149508 Ha       -3091.52607629 eV
  | XC energy correction          :         -26.23437546 Ha        -713.87367766 eV
  | XC potential correction       :          33.71133681 Ha         917.33214792 eV
  | Free-atom electrostatic energy:         -86.63939986 Ha       -2357.57802240 eV
  | Hartree energy correction     :          -0.57340395 Ha         -15.60311523 eV
  | Entropy correction            :           0.00000000 Ha           0.00000000 eV
  | ---------------------------
  | Total energy                  :        -193.34733753 Ha       -5261.24874366 eV
  | Total energy, T -> 0          :        -193.34733753 Ha       -5261.24874366 eV  <-- do not rely on this value for anything but (periodic) metals
  | Electronic free energy        :        -193.34733753 Ha       -5261.24874366 eV

  Derived energy quantities:
  | Kinetic energy                :         191.13610354 Ha        5201.07800527 eV
  | Electrostatic energy          :        -358.24906562 Ha       -9748.45307126 eV
  | Energy correction for multipole
  | error in Hartree potential    :          -0.00104202 Ha          -0.02835485 eV
  | Sum of eigenvalues per atom                           :        -309.15260763 eV
  | Total energy (T->0) per atom                          :        -526.12487437 eV  <-- do not rely on this value for anything but (periodic) metals
  | Electronic free energy per atom                       :        -526.12487437 eV
  Evaluating new KS density.
  Integration grid: deviation in total charge (<rho> - N_e) =   7.105427E-15

  Self-consistency convergence accuracy:
  | Change of charge density      :  0.4981E+00
  | Change of unmixed KS density  :  0.1338E+02
  | Change of sum of eigenvalues  :  0.1631E+02 eV
  | Change of total energy        :  0.1168E+01 eV


------------------------------------------------------------
  End self-consistency iteration #     1       :  max(cpu_time)    wall_clock(cpu1)
  | Time for this iteration                     :        0.331 s           0.331 s
  | Charge density update                       :        0.098 s           0.098 s
  | Density mixing                              :        0.002 s           0.002 s
  | Hartree multipole update                    :        0.006 s           0.006 s
  | Hartree multipole summation                 :        0.040 s           0.040 s
  | Integration                                 :        0.164 s           0.163 s
  | Solution of K.-S. eqns.                     :        0.021 s           0.020 s
  | Total energy evaluation                     :        0.000 s           0.000 s

  Partial memory accounting:
  | Current value for overall tracked memory usage:
  |   Minimum:        4.821 MB (on task 15)
  |   Maximum:        4.927 MB (on task 16)
  |   Average:        4.867 MB
  | Peak value for overall tracked memory usage:
  |   Minimum:        6.403 MB (on task 15 after allocating wave)
  |   Maximum:        6.509 MB (on task 16 after allocating wave)
  |   Average:        6.449 MB
  | Largest tracked array allocation so far:
  |   Minimum:        1.463 MB (previous_rho_gradient_diff on task 15)
  |   Maximum:        1.495 MB (previous_rho_gradient_diff on task  7)
  |   Average:        1.475 MB
  Note:  These values currently only include a subset of arrays which are explicitly tracked.
  The "true" memory usage will be greater.
------------------------------------------------------------

------------------------------------------------------------
          Begin self-consistency iteration #    2

  Date     :  20250306, Time     :  150226.368
------------------------------------------------------------
  Pulay mixing of updated and previous charge densities.
  Available memory per node after mixing [GB]:    924.79
  Renormalizing the density to the exact electron count on the 3D integration grid.
  | Formal number of electrons (from input files) :      32.0000000000
  | Integrated number of electrons on 3D grid     :      32.0000000000
  | Charge integration error                      :       0.0000000000
  | Normalization factor for density and gradient :       1.0000000000

  Evaluating partitioned Hartree potential by multipole expansion.
  | Original multipole sum: apparent total charge =   0.419022E-13
  | Sum of charges compensated after spline to logarithmic grids =   0.139460E-05
  | Analytical far-field extrapolation by fixed multipoles:
  | Hartree multipole sum: apparent total charge =   0.421851E-13
  Summing up the Hartree potential.
  Time summed over all CPUs for potential: real work        0.022 s, elapsed        0.037 s
  | RMS charge density error from multipole expansion :   0.405753E-02

  Integrating Hamiltonian matrix: batch-based integration.
  Time summed over all CPUs for integration: real work        1.992 s, elapsed        3.210 s => Consider using load balancing!

  Updating Kohn-Sham eigenvalues and eigenvectors using ELSI and the ELPA eigensolver.
  Starting ELPA eigensolver
  Finished transformation to standard eigenproblem
  | Time :     0.002 s
  Finished solving standard eigenproblem
  | Time :     0.014 s
  Finished back-transformation of eigenvectors
  | Time :     0.002 s

  Obtaining occupation numbers and electronic chemical potential using ELSI.
  | Note that, for insulating systems, the printed 'chemical potential' value is not uniquely defined.
  | It can be anywhere in the energy gap, as long as it correctly separates occupied and unoccupied states.
  | In systems with a gap, the physically relevant chemical potential is the VBM or HOMO.

  Residual electron error for mid-point Fermi level : 0.0000000000000000E+000
  ELSI found chemical potential half-way between HOMO and LUMO.
  | Chemical potential (Fermi level):    -4.57144104 eV
  Highest occupied state (VBM) at     -6.55157271 eV
  | Occupation number:      2.00000000

  Lowest unoccupied state (CBM) at    -2.59130936 eV
  | Occupation number:      0.00000000

  Overall HOMO-LUMO gap:      3.96026336 eV.

  Checking to see if s.c.f. parameters should be adjusted.
  The system likely has a gap. Increased the default Pulay mixing parameter (charge_mix_param). Value:   0.200000 .
  Kept the default occupation width. Value:   0.010000 eV.

  Total energy components:
  | Sum of eigenvalues            :        -109.48758811 Ha       -2979.30885814 eV
  | XC energy correction          :         -26.65663405 Ha        -725.36391854 eV
  | XC potential correction       :          34.25941952 Ha         932.24623725 eV
  | Free-atom electrostatic energy:         -86.63939986 Ha       -2357.57802240 eV
  | Hartree energy correction     :          -4.66256120 Ha        -126.87474550 eV
  | Entropy correction            :           0.00000000 Ha           0.00000000 eV
  | ---------------------------
  | Total energy                  :        -193.18676370 Ha       -5256.87930734 eV
  | Total energy, T -> 0          :        -193.18676370 Ha       -5256.87930734 eV  <-- do not rely on this value for anything but (periodic) metals
  | Electronic free energy        :        -193.18676370 Ha       -5256.87930734 eV

  Derived energy quantities:
  | Kinetic energy                :         193.05598686 Ha        5253.32068837 eV
  | Electrostatic energy          :        -359.58611651 Ha       -9784.83607716 eV
  | Energy correction for multipole
  | error in Hartree potential    :          -0.00853846 Ha          -0.23234337 eV
  | Sum of eigenvalues per atom                           :        -297.93088581 eV
  | Total energy (T->0) per atom                          :        -525.68793073 eV  <-- do not rely on this value for anything but (periodic) metals
  | Electronic free energy per atom                       :        -525.68793073 eV
  Evaluating new KS density.
  Integration grid: deviation in total charge (<rho> - N_e) =  -1.421085E-14

  Self-consistency convergence accuracy:
  | Change of charge density      :  0.4516E+00
  | Change of unmixed KS density  :  0.3588E-01
  | Change of sum of eigenvalues  :  0.1122E+03 eV
  | Change of total energy        :  0.4369E+01 eV


------------------------------------------------------------
  End self-consistency iteration #     2       :  max(cpu_time)    wall_clock(cpu1)
  | Time for this iteration                     :        0.328 s           0.328 s
  | Charge density update                       :        0.097 s           0.097 s
  | Density mixing                              :        0.004 s           0.004 s
  | Hartree multipole update                    :        0.005 s           0.006 s
  | Hartree multipole summation                 :        0.038 s           0.038 s
  | Integration                                 :        0.163 s           0.163 s
  | Solution of K.-S. eqns.                     :        0.020 s           0.020 s
  | Total energy evaluation                     :        0.000 s           0.000 s

  Partial memory accounting:
  | Current value for overall tracked memory usage:
  |   Minimum:        4.822 MB (on task 15)
  |   Maximum:        4.927 MB (on task 16)
  |   Average:        4.867 MB
  | Peak value for overall tracked memory usage:
  |   Minimum:        6.404 MB (on task 15 after allocating wave)
  |   Maximum:        6.510 MB (on task 16 after allocating wave)
  |   Average:        6.449 MB
  | Largest tracked array allocation so far:
  |   Minimum:        1.463 MB (previous_rho_gradient_diff on task 15)
  |   Maximum:        1.495 MB (previous_rho_gradient_diff on task  7)
  |   Average:        1.475 MB
  Note:  These values currently only include a subset of arrays which are explicitly tracked.
  The "true" memory usage will be greater.
------------------------------------------------------------

------------------------------------------------------------
          Begin self-consistency iteration #    3

  Date     :  20250306, Time     :  150226.697
------------------------------------------------------------
  Pulay mixing of updated and previous charge densities.
  Available memory per node after mixing [GB]:    924.77
  Renormalizing the density to the exact electron count on the 3D integration grid.
  | Formal number of electrons (from input files) :      32.0000000000
  | Integrated number of electrons on 3D grid     :      32.0000000000
  | Charge integration error                      :       0.0000000000
  | Normalization factor for density and gradient :       1.0000000000

  Evaluating partitioned Hartree potential by multipole expansion.
  | Original multipole sum: apparent total charge =   0.189034E-13
  | Sum of charges compensated after spline to logarithmic grids =   0.488168E-06
  | Analytical far-field extrapolation by fixed multipoles:
  | Hartree multipole sum: apparent total charge =   0.190079E-13
  Summing up the Hartree potential.
  Time summed over all CPUs for potential: real work        0.022 s, elapsed        0.039 s
  | RMS charge density error from multipole expansion :   0.661415E-02

  Integrating Hamiltonian matrix: batch-based integration.
  Time summed over all CPUs for integration: real work        1.971 s, elapsed        3.212 s => Consider using load balancing!

  Updating Kohn-Sham eigenvalues and eigenvectors using ELSI and the ELPA eigensolver.
  Starting ELPA eigensolver
  Finished transformation to standard eigenproblem
  | Time :     0.003 s
  Finished solving standard eigenproblem
  | Time :     0.013 s
  Finished back-transformation of eigenvectors
  | Time :     0.002 s

  Obtaining occupation numbers and electronic chemical potential using ELSI.
  | Note that, for insulating systems, the printed 'chemical potential' value is not uniquely defined.
  | It can be anywhere in the energy gap, as long as it correctly separates occupied and unoccupied states.
  | In systems with a gap, the physically relevant chemical potential is the VBM or HOMO.

  Residual electron error for mid-point Fermi level : 0.0000000000000000E+000
  ELSI found chemical potential half-way between HOMO and LUMO.
  | Chemical potential (Fermi level):    -4.60264878 eV
  Highest occupied state (VBM) at     -6.75718550 eV
  | Occupation number:      2.00000000

  Lowest unoccupied state (CBM) at    -2.44811207 eV
  | Occupation number:      0.00000000

  Overall HOMO-LUMO gap:      4.30907344 eV.

  Total energy components:
  | Sum of eigenvalues            :        -109.14328108 Ha       -2969.93978702 eV
  | XC energy correction          :         -26.72400484 Ha        -727.19717120 eV
  | XC potential correction       :          34.34329225 Ha         934.52853051 eV
  | Free-atom electrostatic energy:         -86.63939986 Ha       -2357.57802240 eV
  | Hartree energy correction     :          -5.00974115 Ha        -136.32199272 eV
  | Entropy correction            :           0.00000000 Ha           0.00000000 eV
  | ---------------------------
  | Total energy                  :        -193.17313468 Ha       -5256.50844283 eV
  | Total energy, T -> 0          :        -193.17313468 Ha       -5256.50844283 eV  <-- do not rely on this value for anything but (periodic) metals
  | Electronic free energy        :        -193.17313468 Ha       -5256.50844283 eV

  Derived energy quantities:
  | Kinetic energy                :         192.69139629 Ha        5243.39967415 eV
  | Electrostatic energy          :        -359.14052612 Ha       -9772.71094578 eV
  | Energy correction for multipole
  | error in Hartree potential    :          -0.01239124 Ha          -0.33718289 eV
  | Sum of eigenvalues per atom                           :        -296.99397870 eV
  | Total energy (T->0) per atom                          :        -525.65084428 eV  <-- do not rely on this value for anything but (periodic) metals
  | Electronic free energy per atom                       :        -525.65084428 eV
  Evaluating new KS density.
  Integration grid: deviation in total charge (<rho> - N_e) =   1.421085E-14

  Self-consistency convergence accuracy:
  | Change of charge density      :  0.2313E+00
  | Change of unmixed KS density  :  0.2419E+00
  | Change of sum of eigenvalues  :  0.9369E+01 eV
  | Change of total energy        :  0.3709E+00 eV


------------------------------------------------------------
  End self-consistency iteration #     3       :  max(cpu_time)    wall_clock(cpu1)
  | Time for this iteration                     :        0.326 s           0.325 s
  | Charge density update                       :        0.095 s           0.095 s
  | Density mixing                              :        0.003 s           0.002 s
  | Hartree multipole update                    :        0.005 s           0.005 s
  | Hartree multipole summation                 :        0.040 s           0.040 s
  | Integration                                 :        0.163 s           0.163 s
  | Solution of K.-S. eqns.                     :        0.019 s           0.019 s
  | Total energy evaluation                     :        0.000 s           0.000 s

  Partial memory accounting:
  | Current value for overall tracked memory usage:
  |   Minimum:        4.822 MB (on task 15)
  |   Maximum:        4.927 MB (on task 16)
  |   Average:        4.867 MB
  | Peak value for overall tracked memory usage:
  |   Minimum:        6.404 MB (on task 15 after allocating wave)
  |   Maximum:        6.510 MB (on task 16 after allocating wave)
  |   Average:        6.449 MB
  | Largest tracked array allocation so far:
  |   Minimum:        1.463 MB (previous_rho_gradient_diff on task 15)
[...]
   ----------------------------------------------------------------
   Total forces(   3)            :  0.139369E-02  0.751297E-03  0.430729E-03
  atom #    4
   Hellmann-Feynman              : -0.523461E+00 -0.363828E+00  0.304865E-02
   Ionic forces                  :  0.000000E+00  0.000000E+00  0.000000E+00
   Multipole                     :  0.202953E+00 -0.910534E-01 -0.279762E-04
   Hartree pot. SCF incomplete   :  0.102118E-05  0.229944E-04 -0.563586E-05
   Pulay + GGA                   :  0.319112E+00  0.455607E+00 -0.258404E-02
   ----------------------------------------------------------------
   Total forces(   4)            : -0.139546E-02  0.748845E-03  0.430999E-03
  atom #    5
   Hellmann-Feynman              : -0.800033E-02 -0.364592E-01  0.364769E-01
   Ionic forces                  :  0.000000E+00  0.000000E+00  0.000000E+00
   Multipole                     :  0.129593E-01 -0.337240E-02  0.145777E-01
   Hartree pot. SCF incomplete   :  0.193281E-04 -0.436606E-05  0.576849E-05
   Pulay + GGA                   : -0.552007E-02  0.398321E-01 -0.514258E-01
   ----------------------------------------------------------------
   Total forces(   5)            : -0.541732E-03 -0.379762E-05 -0.365436E-03
  atom #    6
   Hellmann-Feynman              : -0.753782E-02 -0.364841E-01 -0.361762E-01
   Ionic forces                  :  0.000000E+00  0.000000E+00  0.000000E+00
   Multipole                     :  0.130222E-01 -0.349150E-02 -0.145477E-01
   Hartree pot. SCF incomplete   :  0.130779E-04 -0.684825E-06 -0.857252E-05
   Pulay + GGA                   : -0.561662E-02  0.400314E-01  0.512260E-01
   ----------------------------------------------------------------
   Total forces(   6)            : -0.119185E-03  0.551398E-04  0.493621E-03
  atom #    7
   Hellmann-Feynman              : -0.794611E-01 -0.208511E-01 -0.172922E-03
   Ionic forces                  :  0.000000E+00  0.000000E+00  0.000000E+00
   Multipole                     :  0.935189E-02  0.377437E-01 -0.570438E-04
   Hartree pot. SCF incomplete   : -0.165203E-04 -0.308412E-04  0.309550E-05
   Pulay + GGA                   :  0.702702E-01 -0.170802E-01  0.128131E-03
   ----------------------------------------------------------------
   Total forces(   7)            :  0.144560E-03 -0.218356E-03 -0.987394E-04
  atom #    8
   Hellmann-Feynman              :  0.794687E-01 -0.208189E-01 -0.173339E-03
   Ionic forces                  :  0.000000E+00  0.000000E+00  0.000000E+00
   Multipole                     : -0.936692E-02  0.377401E-01 -0.572549E-04
   Hartree pot. SCF incomplete   :  0.165405E-04 -0.308065E-04  0.309546E-05
   Pulay + GGA                   : -0.702635E-01 -0.171078E-01  0.128666E-03
   ----------------------------------------------------------------
   Total forces(   8)            : -0.145173E-03 -0.217407E-03 -0.988323E-04
  atom #    9
   Hellmann-Feynman              :  0.801422E-02 -0.364550E-01  0.364770E-01
   Ionic forces                  :  0.000000E+00  0.000000E+00  0.000000E+00
   Multipole                     : -0.129576E-01 -0.337694E-02  0.145781E-01
   Hartree pot. SCF incomplete   : -0.193282E-04 -0.438385E-05  0.578806E-05
   Pulay + GGA                   :  0.550453E-02  0.398336E-01 -0.514264E-01
   ----------------------------------------------------------------
   Total forces(   9)            :  0.541872E-03 -0.270214E-05 -0.365435E-03
  atom #   10
   Hellmann-Feynman              :  0.755248E-02 -0.364803E-01 -0.361758E-01
   Ionic forces                  :  0.000000E+00  0.000000E+00  0.000000E+00
   Multipole                     : -0.130211E-01 -0.349701E-02 -0.145474E-01
   Hartree pot. SCF incomplete   : -0.130804E-04 -0.698900E-06 -0.859429E-05
   Pulay + GGA                   :  0.560096E-02  0.400340E-01  0.512254E-01
   ----------------------------------------------------------------
   Total forces(  10)            :  0.119204E-03  0.560889E-04  0.493549E-03


  Self-consistency convergence accuracy:
  | Change of charge density      :  0.2378E-05
  | Change of unmixed KS density  :  0.3938E-05
  | Change of sum of eigenvalues  :  0.1084E-03 eV
  | Change of total energy        :  0.3756E-08 eV
  | Change of forces              :  0.1052E+01 eV/A

  Writing Kohn-Sham eigenvalues.

  State    Occupation    Eigenvalue [Ha]    Eigenvalue [eV]
      1       2.00000         -18.771563         -510.80023
      2       2.00000          -9.984317         -271.68708
      3       2.00000          -9.902164         -269.45158
      4       2.00000          -9.902163         -269.45158
      5       2.00000          -0.954263          -25.96681
      6       2.00000          -0.702349          -19.11188
      7       2.00000          -0.646282          -17.58624
      8       2.00000          -0.481100          -13.09139
      9       2.00000          -0.417412          -11.35836
     10       2.00000          -0.413822          -11.26068
     11       2.00000          -0.404432          -11.00515
     12       2.00000          -0.361819           -9.84559
     13       2.00000          -0.351559           -9.56641
     14       2.00000          -0.338390           -9.20807
     15       2.00000          -0.316113           -8.60186
     16       2.00000          -0.208296           -5.66803
     17       0.00000          -0.062247           -1.69383
     18       0.00000          -0.015845           -0.43118
     19       0.00000           0.021182            0.57640
     20       0.00000           0.031201            0.84902
     21       0.00000           0.040117            1.09163
     22       0.00000           0.060069            1.63455
     23       0.00000           0.068460            1.86290
     24       0.00000           0.075773            2.06190
     25       0.00000           0.095928            2.61034
     26       0.00000           0.117079            3.18587
     27       0.00000           0.126379            3.43895
     28       0.00000           0.146305            3.98117
     29       0.00000           0.154960            4.21668
     30       0.00000           0.198802            5.40969
     31       0.00000           0.207868            5.65639
     32       0.00000           0.212014            5.76919
     33       0.00000           0.218457            5.94452
     34       0.00000           0.229356            6.24108
     35       0.00000           0.258746            7.04082
     36       0.00000           0.275292            7.49108
     37       0.00000           0.277379            7.54787

  Highest occupied state (VBM) at     -5.66803160 eV
  | Occupation number:      2.00000000

  Lowest unoccupied state (CBM) at    -1.69382549 eV
  | Occupation number:      0.00000000

  Overall HOMO-LUMO gap:      3.97420612 eV.

  | Chemical Potential                          :    -3.68092854 eV
  | Note that, for insulating systems, the printed 'chemical potential' value is not uniquely defined.
  | It can be anywhere in the energy gap, as long as it correctly separates occupied and unoccupied states.
  | In systems with a gap, the physically relevant chemical potential is the VBM or HOMO.

  Self-consistency cycle converged.


------------------------------------------------------------
  End self-consistency iteration #     6       :  max(cpu_time)    wall_clock(cpu1)
  | Time for this iteration                     :        0.801 s           0.801 s
  | Charge density & force component update     :        0.435 s           0.435 s
  | Density mixing                              :        0.004 s           0.004 s
  | Hartree multipole update                    :        0.006 s           0.006 s
  | Hartree multipole summation                 :        0.113 s           0.113 s
  | Hartree pot. SCF incomplete forces          :        0.077 s           0.077 s
  | Integration                                 :        0.149 s           0.150 s
  | Solution of K.-S. eqns.                     :        0.015 s           0.014 s
  | Total energy evaluation                     :        0.000 s           0.000 s

  Partial memory accounting:
  | Current value for overall tracked memory usage:
  |   Minimum:        4.841 MB (on task 11)
  |   Maximum:        4.953 MB (on task 17)
  |   Average:        4.891 MB
  | Peak value for overall tracked memory usage:
  |   Minimum:        8.981 MB (on task 15 after allocating hessian_basis_wave)
  |   Maximum:        9.042 MB (on task 16 after allocating hessian_basis_wave)
  |   Average:        9.018 MB
  | Largest tracked array allocation so far:
  |   Minimum:        2.230 MB (hessian_basis_wave on task  0)
  |   Maximum:        2.230 MB (hessian_basis_wave on task  0)
  |   Average:        2.230 MB
  Note:  These values currently only include a subset of arrays which are explicitly tracked.
  The "true" memory usage will be greater.
------------------------------------------------------------
  Removing unitary transformations (pure translations, rotations) from forces on atoms.
  Atomic forces before filtering:
  | Net force on center of mass :  -0.429901E-05  0.684991E-03 -0.711254E-04 eV/A
  | Net torque on center of mass:  -0.565315E-05 -0.325221E-07 -0.416515E-05 eV
  Atomic forces after filtering:
  | Net force on center of mass :  -0.130669E-18 -0.326671E-19  0.000000E+00 eV/A
  | Net torque on center of mass:  -0.531566E-18  0.645370E-18  0.126769E-18 eV

  Energy and forces in a compact form:
  | Total energy uncorrected      :         -0.525630843270565E+04 eV
  | Total energy corrected        :         -0.525630843270565E+04 eV  <-- do not rely on this value for anything but (periodic) metals
  | Electronic free energy        :         -0.525630843270565E+04 eV
  Total atomic forces (unitary forces cleaned) [eV/Ang]:
  |    1          0.682901849047886E-06         -0.154774141679201E-02          0.818755283362564E-03
  |    2         -0.151180817245478E-05          0.926625259243172E-03         -0.179749974854497E-02
  |    3          0.139409978191042E-02          0.682998127275081E-03          0.437924723527085E-03
  |    4         -0.139505364269524E-02          0.680145258701300E-03          0.438198681406269E-03
  |    5         -0.541428815666560E-03         -0.716009751265453E-04         -0.357878104254496E-03
  |    6         -0.118880038186046E-03         -0.136394271931430E-04          0.501181076888527E-03
  |    7          0.145070553762486E-03         -0.286521105988427E-03         -0.919174366138335E-04
  |    8         -0.144662546201096E-03         -0.286241812375914E-03         -0.920044296269188E-04
  |    9          0.542174715757478E-03         -0.709197498488879E-04         -0.357873311557068E-03
  |   10          0.119508897641958E-03         -0.131041578946230E-04          0.501113265412842E-03

  ------------------------------------ 
  Start decomposition of the XC Energy 
  ------------------------------------ 
  X and C from original XC functional choice 
  Hartree-Fock Energy :          0.000000000 Ha              0.000000000 eV
  X Energy            :        -25.804104516 Ha           -702.165409653 eV
  C Energy            :         -1.036222079 Ha            -28.197037415 eV
  XC Energy w/o HF    :        -26.840326595 Ha           -730.362447069 eV
  Total XC Energy     :        -26.840326595 Ha           -730.362447069 eV
  ------------------------------------ 
  LDA X and C from self-consistent density 
  X Energy LDA        :        -23.371660559 Ha           -635.975241887 eV
  C Energy LDA        :         -2.043072089 Ha            -55.594820173 eV
  ------------------------------------ 
  End decomposition of the XC Energy 
  ------------------------------------ 

------------------------------------------------------------
  Relaxation / MD: End force evaluation.       :  max(cpu_time)    wall_clock(cpu1)
  | Time for this force evaluation              :        2.485 s           2.503 s

------------------------------------------------------------
  Geometry optimization: Attempting to predict improved coordinates.

  Removing unitary transformations (pure translations, rotations) from forces on atoms.
  Atomic forces before filtering:
  | Net force on center of mass :  -0.130669E-18 -0.326671E-19  0.000000E+00 eV/A
  | Net torque on center of mass:  -0.531566E-18  0.645370E-18  0.126769E-18 eV
  Atomic forces after filtering:
  | Net force on center of mass :   0.653343E-19  0.419228E-18  0.174225E-18 eV/A
  | Net torque on center of mass:   0.155580E-18  0.645370E-18  0.184392E-18 eV
  Net remaining forces (excluding translations, rotations) in present geometry:
  || Forces on atoms   || =   0.179750E-02 eV/A.
  Maximum force component is  0.179750E-02 eV/A.
  Present geometry is converged.

------------------------------------------------------------
  Final atomic structure:
                         x [A]             y [A]             z [A]
            atom         0.00024655       -1.33015607        0.00088397  O
            atom         0.00000700       -0.11148773        0.00047508  C
            atom         1.28839831        0.68795916       -0.00012122  C
            atom        -1.28869876        0.68745266       -0.00013344  C
            atom         1.33019345        1.34271519       -0.88308336  H
            atom         1.32878958        1.34691005        0.87974492  H
            atom         2.15095184        0.01483665        0.00201134  H
            atom        -2.15098727        0.01399071        0.00200846  H
            atom        -1.33075047        1.34217684       -0.88310708  H
            atom        -1.32935022        1.34640255        0.87972133  H
------------------------------------------------------------

------------------------------------------------------------------------------
  Final output of selected total energy values:

  The following output summarizes some interesting total energy values
  at the end of a run (AFTER all relaxation, molecular dynamics, etc.).

  | Total energy of the DFT / Hartree-Fock s.c.f. calculation      :          -5256.308432706 eV
  | Final zero-broadening corrected energy (caution - metals only) :          -5256.308432706 eV
  | For reference only, the value of 1 Hartree used in FHI-aims is :             27.211384500 eV

  Before relying on these values, please be sure to understand exactly which
  total energy value is referred to by a given number. Different objects may
  all carry the same name 'total energy'. Definitions:

  Total energy of the DFT / Hartree-Fock s.c.f. calculation:
  | Note that this energy does not include ANY quantities calculated after the
  | s.c.f. cycle, in particular not ANY RPA, MP2, etc. many-body perturbation terms.

  Final zero-broadening corrected energy:
  | For metallic systems only, a broadening of the occupation numbers at the Fermi
  | level can be extrapolated back to zero broadening by an electron-gas inspired
  | formula. For all systems that are not real metals, this value can be
  | meaningless and should be avoided.

------------------------------------------------------------------------------
  Methods described in the following list of references were used in this FHI-aims run.
  If you publish the results, please make sure to cite these reference if they apply.
  FHI-aims is an academic code, and for our developers (often, Ph.D. students
  and postdocs), scientific credit in the community is essential.
  Thank you for helping us!

  For any use of FHI-aims, please cite:

    Volker Blum, Ralf Gehrke, Felix Hanke, Paula Havu, Ville Havu,
    Xinguo Ren, Karsten Reuter, and Matthias Scheffler
    'Ab initio molecular simulations with numeric atom-centered orbitals'
    Computer Physics Communications 180, 2175-2196 (2009)
    http://doi.org/10.1016/j.cpc.2009.06.022


  The ELSI infrastructure was used in your run to solve the Kohn-Sham electronic structure.
  Please check out https://wordpress.elsi-interchange.org to learn more.
  If scalability is important for your project, please acknowledge ELSI by citing:

    V. W-z. Yu, F. Corsetti, A. Garcia, W. P. Huhn, M. Jacquelin, W. Jia,
    B. Lange, L. Lin, J. Lu, W. Mi, A. Seifitokaldani, A. Vazquez-Mayagoitia,
    C. Yang, H. Yang, and V. Blum
    'ELSI: A unified software interface for Kohn-Sham electronic structure solvers'
    Computer Physics Communications 222, 267-285 (2018).
    http://doi.org/10.1016/j.cpc.2017.09.007


  For the real-space grid partitioning and parallelization used in this calculation, please cite:

    Ville Havu, Volker Blum, Paula Havu, and Matthias Scheffler,
    'Efficient O(N) integration for all-electron electronic structure calculation'
    'using numerically tabulated basis functions'
    Journal of Computational Physics 228, 8367-8379 (2009).
    http://doi.org/10.1016/j.jcp.2009.08.008

  Of course, there are many other important community references, e.g., those cited in the
  above references. Our list is limited to references that describe implementations in the
  FHI-aims code. The reason is purely practical (length of this list) - please credit others as well.

------------------------------------------------------------
          Leaving FHI-aims.
          Date     :  20250306, Time     :  150242.010

          Computational steps:
          | Number of self-consistency cycles          :           42
          | Number of SCF (re)initializations          :            5
          | Number of relaxation steps                 :            4

          Detailed time accounting                     :  max(cpu_time)    wall_clock(cpu1)
          | Total time                                  :       17.001 s          17.038 s
          | Preparation time                            :        0.298 s           0.290 s
          | Boundary condition initalization            :        0.116 s           0.101 s
          | Grid partitioning                           :        0.347 s           0.348 s
          | Preloading free-atom quantities on grid     :        0.192 s           0.193 s
          | Free-atom superposition energy              :        0.048 s           0.049 s
          | Total time for integrations                 :        6.771 s           6.775 s
          | Total time for solution of K.-S. equations  :        0.844 s           0.846 s
          | Total time for EV reorthonormalization      :        0.014 s           0.013 s
          | Total time for density & force components   :        5.593 s           5.588 s
          | Total time for mixing                       :        0.146 s           0.141 s
          | Total time for Hartree multipole update     :        0.218 s           0.224 s
          | Total time for Hartree multipole sum        :        1.747 s           1.747 s
          | Total time for total energy evaluation      :        0.006 s           0.010 s
          | Total time NSC force correction             :        0.370 s           0.370 s
          | Total time for scaled ZORA corrections      :        0.000 s           0.000 s

          Partial memory accounting:
          | Residual value for overall tracked memory usage across tasks:     0.000000 MB (should be 0.000000 MB)
          | Peak values for overall tracked memory usage:
          |   Minimum:        8.981 MB (on task 15 after allocating hessian_basis_wave)
          |   Maximum:        9.042 MB (on task 16 after allocating hessian_basis_wave)
          |   Average:        9.018 MB
          | Largest tracked array allocation:
          |   Minimum:        2.230 MB (hessian_basis_wave on task  0)
          |   Maximum:        2.230 MB (hessian_basis_wave on task  0)
          |   Average:        2.230 MB
          Note:  These values currently only include a subset of arrays which are explicitly tracked.
          The "true" memory usage will be greater.

          Have a nice day.
------------------------------------------------------------
