------------------------------------------------------------
          Invoking FHI-aims ...

          When using FHI-aims, please cite the following reference:

            Volker Blum, Ralf Gehrke, Felix Hanke, Paula Havu,
            Ville Havu, Xinguo Ren, Karsten Reuter, and Matthias Scheffler,
            'Ab Initio Molecular Simulations with Numeric Atom-Centered Orbitals',
            Computer Physics Communications 180, 2175-2196 (2009)

          In addition, many other developments in FHI-aims are likely important for
          your particular application. If so, please cite them. A partial list of references
          is written at the end of this file. Thank you for giving credit to the authors
          of these developments.

          For general information about FHI-aims please find us at

            https://fhi-aims.org

          Online tutorials can be found at

            https://fhi-aims-club.gitlab.io/tutorials/tutorials-overview/

          For any questions about FHI-aims, please visit our slack channel at

            https://fhi-aims.slack.com

          and our main development and support site at

            https://aims-git.rz-berlin.mpg.de .

          The latter site, in particular, has a wiki to collect information, as well
          as an issue tracker to log discussions, suggest improvements, and report issues
          or bugs. https://aims-git.rz-berlin.mpg.de is also the main development site
          of the project and all new and updated code versions can be obtained there.
          Please send an email to aims-coordinators@fhi-berlin.mpg.de and we will add
          you to these sites. They are for you and everyone is welcome there.

------------------------------------------------------------



  Date     :  20241004, Time     :  135832.310
  Time zero on CPU 1             :   0.132353200000000E+01  s.
  Internal wall clock time zero  :           497282312.310  s.

  FHI-aims created a unique identifier for this run for later identification
  aims_uuid : 39E35BED-1992-4548-AADE-F7F13AB4BF3E

  Build configuration of the current instance of FHI-aims
  -------------------------------------------------------
  FHI-aims version      : 240605
  Commit number         : b001b2e18
  CMake host system     : Linux-6.5.0-41-generic
  CMake version         : 3.22.1
  Fortran compiler      : /opt/intel/oneapi/mpi/2021.12/bin/mpiifort (IntelLLVM) version 2024.1.0
  Fortran compiler flags: -fc=ifx -O3 -ip -fp-model precise
  C compiler            : /opt/intel/oneapi/mpi/2021.12/bin/mpiicc (IntelLLVM) version 2024.1.0
  C compiler flags      : -cc=icx -O3 -ip -fp-model precise -std=gnu99
  C++ compiler          : /opt/intel/oneapi/mpi/2021.12/bin/mpiicpc (IntelLLVM) version 2024.1.0
  C++ compiler flags    : -cxx=icpx -O3 -ip -fp-model precise -std=c++11
  HIP compiler          :
  HIP compiler flags    :
  HIP GPU arch          :
  Using MPI
  Using ScaLAPACK
  Using LibXC
  Using i-PI
  Using RLSY
  Linking against: /opt/intel/oneapi/mkl/2024.1/lib/intel64/libmkl_intel_lp64.so
                   /opt/intel/oneapi/mkl/2024.1/lib/intel64/libmkl_sequential.so
                   /opt/intel/oneapi/mkl/2024.1/lib/intel64/libmkl_core.so
                   /opt/intel/oneapi/mkl/2024.1/lib/intel64/libmkl_blacs_intelmpi_lp64.so
                   /opt/intel/oneapi/mkl/2024.1/lib/intel64/libmkl_scalapack_lp64.so
                   /opt/intel/oneapi/mkl/2024.1/lib/intel64/libmkl_core.so

  Using      128 parallel tasks.
  Task        0 on host RSL-arvutus reporting.
  Task        1 on host RSL-arvutus reporting.
  Task        2 on host RSL-arvutus reporting.
  Task        3 on host RSL-arvutus reporting.
  Task        4 on host RSL-arvutus reporting.
  Task        5 on host RSL-arvutus reporting.
  Task        6 on host RSL-arvutus reporting.
  Task        7 on host RSL-arvutus reporting.
  Task        8 on host RSL-arvutus reporting.
  Task        9 on host RSL-arvutus reporting.
  Task       10 on host RSL-arvutus reporting.
  Task       11 on host RSL-arvutus reporting.
  Task       12 on host RSL-arvutus reporting.
  Task       13 on host RSL-arvutus reporting.
  Task       14 on host RSL-arvutus reporting.
  Task       15 on host RSL-arvutus reporting.
  Task       16 on host RSL-arvutus reporting.
  Task       17 on host RSL-arvutus reporting.
  Task       18 on host RSL-arvutus reporting.
  Task       19 on host RSL-arvutus reporting.
  Task       20 on host RSL-arvutus reporting.
  Task       21 on host RSL-arvutus reporting.
  Task       22 on host RSL-arvutus reporting.
  Task       23 on host RSL-arvutus reporting.
  Task       24 on host RSL-arvutus reporting.
  Task       25 on host RSL-arvutus reporting.
  Task       26 on host RSL-arvutus reporting.
  Task       27 on host RSL-arvutus reporting.
  Task       28 on host RSL-arvutus reporting.
  Task       29 on host RSL-arvutus reporting.
  Task       30 on host RSL-arvutus reporting.
  Task       31 on host RSL-arvutus reporting.
  Task       32 on host RSL-arvutus reporting.
  Task       33 on host RSL-arvutus reporting.
  Task       34 on host RSL-arvutus reporting.
  Task       35 on host RSL-arvutus reporting.
  Task       36 on host RSL-arvutus reporting.
  Task       37 on host RSL-arvutus reporting.
  Task       38 on host RSL-arvutus reporting.
  Task       39 on host RSL-arvutus reporting.
  Task       40 on host RSL-arvutus reporting.
  Task       41 on host RSL-arvutus reporting.
  Task       42 on host RSL-arvutus reporting.
  Task       43 on host RSL-arvutus reporting.
  Task       44 on host RSL-arvutus reporting.
  Task       45 on host RSL-arvutus reporting.
  Task       46 on host RSL-arvutus reporting.
  Task       47 on host RSL-arvutus reporting.
  Task       48 on host RSL-arvutus reporting.
  Task       49 on host RSL-arvutus reporting.
  Task       50 on host RSL-arvutus reporting.
  Task       51 on host RSL-arvutus reporting.
  Task       52 on host RSL-arvutus reporting.
  Task       53 on host RSL-arvutus reporting.
  Task       54 on host RSL-arvutus reporting.
  Task       55 on host RSL-arvutus reporting.
  Task       56 on host RSL-arvutus reporting.
  Task       57 on host RSL-arvutus reporting.
  Task       58 on host RSL-arvutus reporting.
  Task       59 on host RSL-arvutus reporting.
  Task       60 on host RSL-arvutus reporting.
  Task       61 on host RSL-arvutus reporting.
  Task       62 on host RSL-arvutus reporting.
  Task       63 on host RSL-arvutus reporting.
  Task       64 on host RSL-arvutus reporting.
  Task       65 on host RSL-arvutus reporting.
  Task       66 on host RSL-arvutus reporting.
  Task       67 on host RSL-arvutus reporting.
  Task       68 on host RSL-arvutus reporting.
  Task       69 on host RSL-arvutus reporting.
  Task       70 on host RSL-arvutus reporting.
  Task       71 on host RSL-arvutus reporting.
  Task       72 on host RSL-arvutus reporting.
  Task       73 on host RSL-arvutus reporting.
  Task       74 on host RSL-arvutus reporting.
  Task       75 on host RSL-arvutus reporting.
  Task       76 on host RSL-arvutus reporting.
  Task       77 on host RSL-arvutus reporting.
  Task       78 on host RSL-arvutus reporting.
  Task       79 on host RSL-arvutus reporting.
  Task       80 on host RSL-arvutus reporting.
  Task       81 on host RSL-arvutus reporting.
  Task       82 on host RSL-arvutus reporting.
  Task       83 on host RSL-arvutus reporting.
  Task       84 on host RSL-arvutus reporting.
  Task       85 on host RSL-arvutus reporting.
  Task       86 on host RSL-arvutus reporting.
  Task       87 on host RSL-arvutus reporting.
  Task       88 on host RSL-arvutus reporting.
  Task       89 on host RSL-arvutus reporting.
  Task       90 on host RSL-arvutus reporting.
  Task       91 on host RSL-arvutus reporting.
  Task       92 on host RSL-arvutus reporting.
  Task       93 on host RSL-arvutus reporting.
  Task       94 on host RSL-arvutus reporting.
  Task       95 on host RSL-arvutus reporting.
  Task       96 on host RSL-arvutus reporting.
  Task       97 on host RSL-arvutus reporting.
  Task       98 on host RSL-arvutus reporting.
  Task       99 on host RSL-arvutus reporting.
  Task      100 on host RSL-arvutus reporting.
  Task      101 on host RSL-arvutus reporting.
  Task      102 on host RSL-arvutus reporting.
  Task      103 on host RSL-arvutus reporting.
  Task      104 on host RSL-arvutus reporting.
  Task      105 on host RSL-arvutus reporting.
  Task      106 on host RSL-arvutus reporting.
  Task      107 on host RSL-arvutus reporting.
  Task      108 on host RSL-arvutus reporting.
  Task      109 on host RSL-arvutus reporting.
  Task      110 on host RSL-arvutus reporting.
  Task      111 on host RSL-arvutus reporting.
  Task      112 on host RSL-arvutus reporting.
  Task      113 on host RSL-arvutus reporting.
  Task      114 on host RSL-arvutus reporting.
  Task      115 on host RSL-arvutus reporting.
  Task      116 on host RSL-arvutus reporting.
  Task      117 on host RSL-arvutus reporting.
  Task      118 on host RSL-arvutus reporting.
  Task      119 on host RSL-arvutus reporting.
  Task      120 on host RSL-arvutus reporting.
  Task      121 on host RSL-arvutus reporting.
  Task      122 on host RSL-arvutus reporting.
  Task      123 on host RSL-arvutus reporting.
  Task      124 on host RSL-arvutus reporting.
  Task      125 on host RSL-arvutus reporting.
  Task      126 on host RSL-arvutus reporting.
  Task      127 on host RSL-arvutus reporting.

  Memory overcommitment is allowed on your operating system.

  Obtaining array dimensions for all initial allocations:
  
  -----------------------------------------------------------------------
  Parsing control.in (first pass over file, find array dimensions only).
  The contents of control.in will be repeated verbatim below
  unless switched off by setting 'verbatim_writeout .false.' .
  in the first line of control.in .
  -----------------------------------------------------------------------
  
    xc              pbe
    relativistic    atomic_zora scalar
    KS_method	  serial
    k_grid          2 4 1
  
    spin		  collinear
    default_initial_moment	0.0
    charge          0.1
  
    restart_write_only   restart
  
    output          Mulliken
    output_level	  full
  
  
  ################################################################################
  #
  #  FHI-aims code project
  #  VB, Fritz-Haber Institut, 2009
  #
  #  Suggested "light" defaults for Ti atom (to be pasted into control.in file)
  #  Be sure to double-check any results obtained with these settings for post-processing,
  #  e.g., with the "tight" defaults and larger basis sets.
  #
  ################################################################################
    species        Ti
  #     global species definitions
      nucleus             22
      mass                47.867
  #
      l_hartree           4
  #
      cut_pot             3.5          1.5  1.0
      basis_dep_cutoff    1e-4
  #
      radial_base         48 5.0
      radial_multiplier   1
      angular_grids       specified
        division   0.5171   50
        division   0.9824  110
        division   1.2917  194
        division   1.4940  302
  #      division   1.6934  434
  #      division   1.8425  590
  #      division   2.1901  770
  #      division   2.2896  974
  #      division   2.8244 1202
  #      outer_grid  974
        outer_grid  302
  ################################################################################
  #
  #  Definition of "minimal" basis
  #
  ################################################################################
  #     valence basis states
      valence      4  s   2.
      valence      3  p   6.
      valence      3  d   2.
  #     ion occupancy
      ion_occ      4  s   1.
      ion_occ      3  p   6.
      ion_occ      3  d   1.
  ################################################################################
  #
  #  Suggested additional basis functions. For production calculations,
  #  uncomment them one after another (the most important basis functions are
  #  listed first).
  #
  #  Constructed for dimers: 1.6 A, 1.85 A, 2.5 A, 3.25 A, 4.25 A
  #
  ################################################################################
  #  "First tier" - improvements: -396.25 meV to -19.41 meV
       hydro 4 f 8
       hydro 3 d 2.7
       ionic 4 p auto
  #     hydro 5 g 11.6
       ionic 4 s auto
  #  "Second tier" - improvements: -16.30 meV to -2.03 meV
  #     hydro 3 d 4.4
  #     hydro 6 h 16
  #     hydro 4 f 9.4
  #     hydro 4 p 4.5
  #     hydro 1 s 0.5
  #  "Third tier" - improvements: -6.28 meV to -0.37 meV
  #     hydro 4 d 6.4
  #     hydro 4 f 10
  #     hydro 5 g 12
  #     hydro 2 p 1.7
  #     hydro 6 h 16.4
  #     hydro 4 s 3.8
  #  Further basis functions: -0.45 meV and smaller improvements
  #     hydro 3 d 8.8
  #     hydro 5 p 18
  #     hydro 4 f 22.4
  #     hydro 5 f 7.2  # -0.16 meV
  #     hydro 3 d 2.1  # -0.11 meV
  #     hydro 5 g 7.4  # -0.09 meV
  
  
  ################################################################################
  #
  #  FHI-aims code project
  #  VB, Fritz-Haber Institut, 2009
  #
  #  Suggested "light" defaults for O atom (to be pasted into control.in file)
  #  Be sure to double-check any results obtained with these settings for post-processing,
  #  e.g., with the "tight" defaults and larger basis sets.
  #
  ################################################################################
    species        O
  #     global species definitions
      nucleus             8
      mass                15.9994
  #
      l_hartree           4
  #
      cut_pot             3.5  1.5  1.0
      basis_dep_cutoff    1e-4
  #
      radial_base         36 5.0
      radial_multiplier   1
       angular_grids specified
        division   0.2659   50
        division   0.4451  110
        division   0.6052  194
        division   0.7543  302
  #      division   0.8014  434
  #      division   0.8507  590
  #      division   0.8762  770
  #      division   0.9023  974
  #      division   1.2339 1202
  #      outer_grid 974
        outer_grid 302
  ################################################################################
  #
  #  Definition of "minimal" basis
  #
  ################################################################################
  #     valence basis states
      valence      2  s   2.
      valence      2  p   4.
  #     ion occupancy
      ion_occ      2  s   1.
      ion_occ      2  p   3.
  ################################################################################
  #
  #  Suggested additional basis functions. For production calculations,
  #  uncomment them one after another (the most important basis functions are
  #  listed first).
  #
  #  Constructed for dimers: 1.0 A, 1.208 A, 1.5 A, 2.0 A, 3.0 A
  #
  ################################################################################
  #  "First tier" - improvements: -699.05 meV to -159.38 meV
       hydro 2 p 1.8
       hydro 3 d 7.6
       hydro 3 s 6.4
  #  "Second tier" - improvements: -49.91 meV to -5.39 meV
  #     hydro 4 f 11.6
  #     hydro 3 p 6.2
  #     hydro 3 d 5.6
  #     hydro 5 g 17.6
  #     hydro 1 s 0.75
  #  "Third tier" - improvements: -2.83 meV to -0.50 meV
  #     ionic 2 p auto
  #     hydro 4 f 10.8
  #     hydro 4 d 4.7
  #     hydro 2 s 6.8
  #  "Fourth tier" - improvements: -0.40 meV to -0.12 meV
  #     hydro 3 p 5
  #     hydro 3 s 3.3
  #     hydro 5 g 15.6
  #     hydro 4 f 17.6
  #     hydro 4 d 14
  # Further basis functions - -0.08 meV and below
  #     hydro 3 s 2.1
  #     hydro 4 d 11.6
  #     hydro 3 p 16
  #     hydro 2 s 17.2
  
  ################################################################################
  #
  #  "Core" basis functions and numerical settings for O atom.
  #  Based on “tight” defaults (V. Blum, 2009).
  #
  ################################################################################
    species        O1
  #     global species definitions
      nucleus             8.1
      mass                15.9994
  #
      l_hartree           6
  #
      cut_pot             4.0  2.0  1.0
      basis_dep_cutoff    1e-4
  #
      radial_base         36 7.0
      radial_multiplier   2
       angular_grids specified
        division   0.1817   50
        division   0.3417  110
        division   0.4949  194
        division   0.6251  302
        division   0.8014  434
  #      division   0.8507  590
  #      division   0.8762  770
  #      division   0.9023  974
  #      division   1.2339 1202
  #      outer_grid 974
        outer_grid  434
  ################################################################################
  #
  #  Definition of "minimal" basis
  #
  ################################################################################
  #     valence basis states
      valence      2  s   2.
      valence      2  p   4.1
  #     ion occupancy
      ion_occ      2  s   1.
      ion_occ      2  p   3.
  ################################################################################
  #
  #  Suggested additional basis functions. For production calculations,
  #  uncomment them one after another (the most important basis functions are
  #  listed first).
  #
  #  Constructed for dimers: 1.0 A, 1.208 A, 1.5 A, 2.0 A, 3.0 A
  #
  ################################################################################
  #  "First tier" - improvements: -699.05 meV to -159.38 meV
       hydro 2 p 1.8
       hydro 3 d 7.6
       hydro 3 s 6.4
  #  "Second tier" - improvements: -49.91 meV to -5.39 meV
       hydro 4 f 11.6
       hydro 3 p 6.2
       hydro 3 d 5.6
       hydro 5 g 17.6
       hydro 1 s 0.75
  #  "Third tier" - improvements: -2.83 meV to -0.50 meV
       ionic 2 p auto
       hydro 4 f 10.8
       hydro 4 d 4.7
       hydro 2 s 6.8
  #  "Fourth tier" - improvements: -0.40 meV to -0.12 meV
  #     hydro 3 p 5
  #     hydro 3 s 3.3
  #     hydro 5 g 15.6
  #     hydro 4 f 17.6
  #     hydro 4 d 14
  # Further basis functions - -0.08 meV and below
  #     hydro 3 s 2.1
  #     hydro 4 d 11.6
  #     hydro 3 p 16
  #     hydro 2 s 17.2
  
  # Additional basis functions for atom with a core hole
       hydro 1 s 12.0
       hydro 1 s 10.0
       hydro 1 s 6.0
       hydro 2 s 10.0
       hydro 2 p 8.0
       hydro 2 p 6.0
       hydro 3 d 8.0
  
  -----------------------------------------------------------------------
  Completed first pass over input file control.in .
  -----------------------------------------------------------------------
  
  
  -----------------------------------------------------------------------
  Parsing geometry.in (first pass over file, find array dimensions only).
  The contents of geometry.in will be repeated verbatim below
  unless switched off by setting 'verbatim_writeout .false.' .
  in the first line of geometry.in .
  -----------------------------------------------------------------------
  
  lattice_vector 13.132253 0.000000 0.000000
  lattice_vector 0.000000 5.945765 0.000000
  lattice_vector 0.000000 0.000000 41.856174
  
  atom 13.132253 0.000000 15.000000 Ti
  atom 3.283063 1.486441 15.000000 Ti
  atom 1.276729 1.486441 15.000029 O1
  atom 3.283086 0.000000 16.276767 O
  atom 6.566086 0.000000 17.006468 O
  atom 2.006317 1.486441 18.283206 O
  atom 3.283046 0.000000 18.283235 Ti
  atom 6.566109 1.486441 18.283235 Ti
  atom 4.559775 1.486441 18.283265 O
  atom 0.000005 0.000000 19.560002 O
  atom 3.283006 0.000000 20.289704 O
  atom 5.289362 1.486441 21.566441 O
  atom 6.566091 0.000000 21.566471 Ti
  atom 3.283028 1.486441 21.566471 Ti
  atom 1.276694 1.486441 21.566500 O
  atom 3.283051 0.000000 22.843237 O
  atom 6.566051 0.000000 23.572939 O
  atom 2.006281 1.486441 24.849676 O
  atom 3.283010 0.000000 24.849706 Ti
  atom 6.566074 1.486441 24.849706 Ti
  atom 4.559740 1.486441 24.849735 O
  atom 6.566096 0.000000 26.126473 O
  atom 3.282970 0.000000 26.856174 O
  atom 13.132253 2.972883 15.000000 Ti
  atom 3.283063 4.459324 15.000000 Ti
  atom 1.276729 4.459324 15.000029 O
  atom 3.283086 2.972883 16.276767 O
  atom 6.566086 2.972883 17.006468 O
  atom 2.006317 4.459324 18.283206 O
  atom 3.283046 2.972883 18.283235 Ti
  atom 6.566109 4.459324 18.283235 Ti
  atom 4.559775 4.459324 18.283265 O
  atom 0.000005 2.972883 19.560002 O
  atom 3.283006 2.972883 20.289704 O
  atom 5.289362 4.459324 21.566441 O
  atom 6.566091 2.972883 21.566471 Ti
  atom 3.283028 4.459324 21.566471 Ti
  atom 1.276694 4.459324 21.566500 O
  atom 3.283051 2.972883 22.843237 O
  atom 6.566051 2.972883 23.572939 O
  atom 2.006281 4.459324 24.849676 O
  atom 3.283010 2.972883 24.849706 Ti
  atom 6.566074 4.459324 24.849706 Ti
  atom 4.559740 4.459324 24.849735 O
  atom 6.566096 2.972883 26.126473 O
  atom 3.282970 2.972883 26.856174 O
  atom 6.566126 0.000000 15.000000 Ti
  atom 9.849190 1.486441 15.000000 Ti
  atom 7.842856 1.486441 15.000029 O
  atom 9.849212 0.000000 16.276767 O
  atom 13.132213 0.000000 17.006468 O
  atom 8.572443 1.486441 18.283206 O
  atom 9.849172 0.000000 18.283235 Ti
  atom 13.132235 1.486441 18.283235 Ti
  atom 11.125901 1.486441 18.283265 O
  atom 6.566131 0.000000 19.560002 O
  atom 9.849132 0.000000 20.289704 O
  atom 11.855489 1.486441 21.566441 O
  atom 13.132218 0.000000 21.566471 Ti
  atom 9.849155 1.486441 21.566471 Ti
  atom 7.842820 1.486441 21.566500 O
  atom 9.849177 0.000000 22.843237 O
  atom 13.132178 0.000000 23.572939 O
  atom 8.572408 1.486441 24.849676 O
  atom 9.849137 0.000000 24.849706 Ti
  atom 13.132200 1.486441 24.849706 Ti
  atom 11.125866 1.486441 24.849735 O
  atom 13.132223 0.000000 26.126473 O
  atom 9.849097 0.000000 26.856174 O
  atom 6.566126 2.972883 15.000000 Ti
  atom 9.849190 4.459324 15.000000 Ti
  atom 7.842856 4.459324 15.000029 O
  atom 9.849212 2.972883 16.276767 O
  atom 13.132213 2.972883 17.006468 O
  atom 8.572443 4.459324 18.283206 O
  atom 9.849172 2.972883 18.283235 Ti
  atom 13.132235 4.459324 18.283235 Ti
  atom 11.125901 4.459324 18.283265 O
  atom 6.566131 2.972883 19.560002 O
  atom 9.849132 2.972883 20.289704 O
  atom 11.855489 4.459324 21.566441 O
  atom 13.132218 2.972883 21.566471 Ti
  atom 9.849155 4.459324 21.566471 Ti
  atom 7.842820 4.459324 21.566500 O
  atom 9.849177 2.972883 22.843237 O
  atom 13.132178 2.972883 23.572939 O
  atom 8.572408 4.459324 24.849676 O
  atom 9.849137 2.972883 24.849706 Ti
  atom 13.132200 4.459324 24.849706 Ti
  atom 11.125866 4.459324 24.849735 O
  atom 13.132223 2.972883 26.126473 O
  atom 9.849097 2.972883 26.856174 O
  
  -----------------------------------------------------------------------
  Completed first pass over input file geometry.in .
  -----------------------------------------------------------------------
  

  Basic array size parameters:
  | Number of species                 :        3
  | Number of atoms                   :       92
  | Number of lattice vectors         :        3
  | Max. basis fn. angular momentum   :        4
  | Max. atomic/ionic basis occupied n:        4
  | Max. number of basis fn. types    :        3
  | Max. radial fns per species/type  :       18
  | Max. logarithmic grid size        :     1383
  | Max. radial integration grid size :       73
  | Max. angular integration grid size:      434
  | Max. angular grid division number :        8
  | Radial grid for Hartree potential :     1383
  | Number of spin channels           :        2

------------------------------------------------------------
          Reading file control.in.
------------------------------------------------------------
  XC: Using PBE gradient-corrected functionals.
  Scalar relativistic treatment of kinetic energy: on-site free-atom approximation to ZORA.
  Kohn-Sham eigenvalues and eigenfunctions calculated by LAPACK via ELSI.
  Found k-point grid:         2         4         1
  Spin treatment: Spin density functional theory - collinear spins.
  Initial spin moment per atom:   0.0000
  Charged system requested: Charge =   0.100000E+00.
  Writing restart information to file restart000
  Mulliken charge analysis will be performed and summarised to the main output.
  Full Mulliken charge analysis will be written to file 'Mulliken.out'.
  Requested output level: full
 
  Reading configuration options for species Ti                  .
  | Found nuclear charge :  22.0000
  | Found atomic mass :    47.8670000000000      amu
  | Found l_max for Hartree potential  :   4
  | Found cutoff potl. onset [A], width [A], scale factor :    3.50000    1.50000    1.00000
  | Threshold for basis-dependent cutoff potential is   0.100000E-03
  | Found data for basic radial integration grid :    48 points, outermost radius =    5.000 A
  | Found multiplier for basic radial grid :   1
  | Found angular grid specification: user-specified.
  | Specified grid contains     5 separate shells.
  | Check grid settings after all constraints further below.
  | Found free-atom valence shell :  4 s   2.000
  | Found free-atom valence shell :  3 p   6.000
  | Found free-atom valence shell :  3 d   2.000
  | Found free-ion valence shell :  4 s   1.000
  | Found free-ion valence shell :  3 p   6.000
  | Found free-ion valence shell :  3 d   1.000
  | Found hydrogenic basis function :  4 f   8.000
  | Found hydrogenic basis function :  3 d   2.700
  | Found ionic basis function :  4 p , default cutoff radius.
  | Found ionic basis function :  4 s , default cutoff radius.
 | Encountered keyword species, ending the description of species Ti                  .
  Species Ti                  : Missing cutoff potential type.
  Defaulting to exp(1/x)/(1-x)^2 type cutoff potential.
  Species Ti: No 'logarithmic' tag. Using default grid for free atom:
  | Default logarithmic grid data [bohr] : 0.1000E-03 0.1000E+03 0.1012E+01
  | Will include ionic basis functions of  2.0-fold positive Ti                   ion.
  Species Ti: On-site basis accuracy parameter (for Gram-Schmidt orthonormalisation) not specified.
  Using default value basis_acc =  0.1000000E-03.
  Species Ti                  : Using default innermost maximum threshold i_radial=  2 for radial functions.
  Species Ti                  : Default cutoff onset for free atom density etc. : 0.35000000E+01 AA.
  Species Ti                  : Basic radial grid will be enhanced according to radial_multiplier =   1, to contain    48 grid points.
 
  Reading configuration options for species O                   .
  | Found nuclear charge :   8.0000
  | Found atomic mass :    15.9994000000000      amu
  | Found l_max for Hartree potential  :   4
  | Found cutoff potl. onset [A], width [A], scale factor :    3.50000    1.50000    1.00000
  | Threshold for basis-dependent cutoff potential is   0.100000E-03
  | Found data for basic radial integration grid :    36 points, outermost radius =    5.000 A
  | Found multiplier for basic radial grid :   1
  | Found angular grid specification: user-specified.
  | Specified grid contains     5 separate shells.
  | Check grid settings after all constraints further below.
  | Found free-atom valence shell :  2 s   2.000
  | Found free-atom valence shell :  2 p   4.000
  | Found free-ion valence shell :  2 s   1.000
  | Found free-ion valence shell :  2 p   3.000
  | Found hydrogenic basis function :  2 p   1.800
  | Found hydrogenic basis function :  3 d   7.600
  | Found hydrogenic basis function :  3 s   6.400
 | Encountered keyword species, ending the description of species O                   .
  Species O                   : Missing cutoff potential type.
  Defaulting to exp(1/x)/(1-x)^2 type cutoff potential.
  Species O : No 'logarithmic' tag. Using default grid for free atom:
  | Default logarithmic grid data [bohr] : 0.1000E-03 0.1000E+03 0.1012E+01
  Species O : On-site basis accuracy parameter (for Gram-Schmidt orthonormalisation) not specified.
  Using default value basis_acc =  0.1000000E-03.
  Species O                   : Using default innermost maximum threshold i_radial=  2 for radial functions.
  Species O                   : Default cutoff onset for free atom density etc. : 0.35000000E+01 AA.
  Species O                   : Basic radial grid will be enhanced according to radial_multiplier =   1, to contain    36 grid points.
 
  Reading configuration options for species O1                  .
  | Found nuclear charge :   8.1000
  | Found atomic mass :    15.9994000000000      amu
  | Found l_max for Hartree potential  :   6
  | Found cutoff potl. onset [A], width [A], scale factor :    4.00000    2.00000    1.00000
  | Threshold for basis-dependent cutoff potential is   0.100000E-03
  | Found data for basic radial integration grid :    36 points, outermost radius =    7.000 A
  | Found multiplier for basic radial grid :   2
  | Found angular grid specification: user-specified.
  | Specified grid contains     6 separate shells.
  | Check grid settings after all constraints further below.
  | Found free-atom valence shell :  2 s   2.000
  | Found free-atom valence shell :  2 p   4.100
  | Found free-ion valence shell :  2 s   1.000
  | Found free-ion valence shell :  2 p   3.000
  | Found hydrogenic basis function :  2 p   1.800
  | Found hydrogenic basis function :  3 d   7.600
  | Found hydrogenic basis function :  3 s   6.400
  | Found hydrogenic basis function :  4 f  11.600
  | Found hydrogenic basis function :  3 p   6.200
  | Found hydrogenic basis function :  3 d   5.600
  | Found hydrogenic basis function :  5 g  17.600
  | Found hydrogenic basis function :  1 s   0.750
  | Found ionic basis function :  2 p , default cutoff radius.
  | Found hydrogenic basis function :  4 f  10.800
  | Found hydrogenic basis function :  4 d   4.700
  | Found hydrogenic basis function :  2 s   6.800
  | Found hydrogenic basis function :  1 s  12.000
  | Found hydrogenic basis function :  1 s  10.000
  | Found hydrogenic basis function :  1 s   6.000
  | Found hydrogenic basis function :  2 s  10.000
  | Found hydrogenic basis function :  2 p   8.000
  | Found hydrogenic basis function :  2 p   6.000
  | Found hydrogenic basis function :  3 d   8.000
  Species O1                  : Missing cutoff potential type.
  Defaulting to exp(1/x)/(1-x)^2 type cutoff potential.
  Species O1: No 'logarithmic' tag. Using default grid for free atom:
  | Default logarithmic grid data [bohr] : 0.1000E-03 0.1000E+03 0.1012E+01
  | Will include ionic basis functions of  2.1-fold positive O1                   ion.
  Species O1: On-site basis accuracy parameter (for Gram-Schmidt orthonormalisation) not specified.
  Using default value basis_acc =  0.1000000E-03.
  Species O1                  : Using default innermost maximum threshold i_radial=  2 for radial functions.
  Species O1                  : Default cutoff onset for free atom density etc. : 0.40000000E+01 AA.
  Species O1                  : Basic radial grid will be enhanced according to radial_multiplier =   2, to contain    73 grid points.
 
  Finished reading input file 'control.in'.
 
------------------------------------------------------------


------------------------------------------------------------
          Reading geometry description geometry.in.
------------------------------------------------------------
  | The smallest distance between any two atoms is         1.95947539 AA.
  | The first atom of this pair is atom number                     88 .
  | The second atom of this pair is atom number                    90 .
  | Wigner-Seitz cell of the first atom image           0     0     0 .
  | (The Wigner-Seitz cell of the second atom is 0 0 0  by definition.)

  Symmetry information by spglib:
  | Precision set to  0.1E-04
  | Number of Operations  : 2
  | Space group           : 6
  | International         : Pm      Q I
  | Schoenflies           : Cs^1
  Input structure read successfully.
  The structure contains       92 atoms,  and a total of       1184.000 electrons.

  Input geometry:
  | Unit cell:
  |       13.13225300        0.00000000        0.00000000
  |        0.00000000        5.94576500        0.00000000
  |        0.00000000        0.00000000       41.85617400
  | Atomic structure:
  |       Atom                x [A]            y [A]            z [A]
  |    1: Species Ti           13.13225300        0.00000000       15.00000000
  |    2: Species Ti            3.28306300        1.48644100       15.00000000
  |    3: Species O1            1.27672900        1.48644100       15.00002900
  |    4: Species O             3.28308600        0.00000000       16.27676700
  |    5: Species O             6.56608600        0.00000000       17.00646800
  |    6: Species O             2.00631700        1.48644100       18.28320600
  |    7: Species Ti            3.28304600        0.00000000       18.28323500
  |    8: Species Ti            6.56610900        1.48644100       18.28323500
  |    9: Species O             4.55977500        1.48644100       18.28326500
  |   10: Species O             0.00000500        0.00000000       19.56000200
  |   11: Species O             3.28300600        0.00000000       20.28970400
  |   12: Species O             5.28936200        1.48644100       21.56644100
  |   13: Species Ti            6.56609100        0.00000000       21.56647100
  |   14: Species Ti            3.28302800        1.48644100       21.56647100
  |   15: Species O             1.27669400        1.48644100       21.56650000
  |   16: Species O             3.28305100        0.00000000       22.84323700
  |   17: Species O             6.56605100        0.00000000       23.57293900
  |   18: Species O             2.00628100        1.48644100       24.84967600
  |   19: Species Ti            3.28301000        0.00000000       24.84970600
  |   20: Species Ti            6.56607400        1.48644100       24.84970600
  |   21: Species O             4.55974000        1.48644100       24.84973500
  |   22: Species O             6.56609600        0.00000000       26.12647300
  |   23: Species O             3.28297000        0.00000000       26.85617400
  |   24: Species Ti           13.13225300        2.97288300       15.00000000
  |   25: Species Ti            3.28306300        4.45932400       15.00000000
  |   26: Species O             1.27672900        4.45932400       15.00002900
  |   27: Species O             3.28308600        2.97288300       16.27676700
  |   28: Species O             6.56608600        2.97288300       17.00646800
  |   29: Species O             2.00631700        4.45932400       18.28320600
  |   30: Species Ti            3.28304600        2.97288300       18.28323500
  |   31: Species Ti            6.56610900        4.45932400       18.28323500
  |   32: Species O             4.55977500        4.45932400       18.28326500
  |   33: Species O             0.00000500        2.97288300       19.56000200
  |   34: Species O             3.28300600        2.97288300       20.28970400
  |   35: Species O             5.28936200        4.45932400       21.56644100
  |   36: Species Ti            6.56609100        2.97288300       21.56647100
  |   37: Species Ti            3.28302800        4.45932400       21.56647100
  |   38: Species O             1.27669400        4.45932400       21.56650000
  |   39: Species O             3.28305100        2.97288300       22.84323700
  |   40: Species O             6.56605100        2.97288300       23.57293900
  |   41: Species O             2.00628100        4.45932400       24.84967600
  |   42: Species Ti            3.28301000        2.97288300       24.84970600
  |   43: Species Ti            6.56607400        4.45932400       24.84970600
  |   44: Species O             4.55974000        4.45932400       24.84973500
  |   45: Species O             6.56609600        2.97288300       26.12647300
  |   46: Species O             3.28297000        2.97288300       26.85617400
  |   47: Species Ti            6.56612600        0.00000000       15.00000000
  |   48: Species Ti            9.84919000        1.48644100       15.00000000
  |   49: Species O             7.84285600        1.48644100       15.00002900
  |   50: Species O             9.84921200        0.00000000       16.27676700
  |   51: Species O            13.13221300        0.00000000       17.00646800
  |   52: Species O             8.57244300        1.48644100       18.28320600
  |   53: Species Ti            9.84917200        0.00000000       18.28323500
  |   54: Species Ti           13.13223500        1.48644100       18.28323500
  |   55: Species O            11.12590100        1.48644100       18.28326500
  |   56: Species O             6.56613100        0.00000000       19.56000200
  |   57: Species O             9.84913200        0.00000000       20.28970400
  |   58: Species O            11.85548900        1.48644100       21.56644100
  |   59: Species Ti           13.13221800        0.00000000       21.56647100
  |   60: Species Ti            9.84915500        1.48644100       21.56647100
  |   61: Species O             7.84282000        1.48644100       21.56650000
  |   62: Species O             9.84917700        0.00000000       22.84323700
  |   63: Species O            13.13217800        0.00000000       23.57293900
  |   64: Species O             8.57240800        1.48644100       24.84967600
  |   65: Species Ti            9.84913700        0.00000000       24.84970600
  |   66: Species Ti           13.13220000        1.48644100       24.84970600
  |   67: Species O            11.12586600        1.48644100       24.84973500
  |   68: Species O            13.13222300        0.00000000       26.12647300
  |   69: Species O             9.84909700        0.00000000       26.85617400
  |   70: Species Ti            6.56612600        2.97288300       15.00000000
  |   71: Species Ti            9.84919000        4.45932400       15.00000000
  |   72: Species O             7.84285600        4.45932400       15.00002900
  |   73: Species O             9.84921200        2.97288300       16.27676700
  |   74: Species O            13.13221300        2.97288300       17.00646800
  |   75: Species O             8.57244300        4.45932400       18.28320600
  |   76: Species Ti            9.84917200        2.97288300       18.28323500
  |   77: Species Ti           13.13223500        4.45932400       18.28323500
  |   78: Species O            11.12590100        4.45932400       18.28326500
  |   79: Species O             6.56613100        2.97288300       19.56000200
  |   80: Species O             9.84913200        2.97288300       20.28970400
  |   81: Species O            11.85548900        4.45932400       21.56644100
  |   82: Species Ti           13.13221800        2.97288300       21.56647100
  |   83: Species Ti            9.84915500        4.45932400       21.56647100
  |   84: Species O             7.84282000        4.45932400       21.56650000
  |   85: Species O             9.84917700        2.97288300       22.84323700
  |   86: Species O            13.13217800        2.97288300       23.57293900
  |   87: Species O             8.57240800        4.45932400       24.84967600
  |   88: Species Ti            9.84913700        2.97288300       24.84970600
  |   89: Species Ti           13.13220000        4.45932400       24.84970600
  |   90: Species O            11.12586600        4.45932400       24.84973500
  |   91: Species O            13.13222300        2.97288300       26.12647300
  |   92: Species O             9.84909700        2.97288300       26.85617400

  Lattice parameters for 3D lattice (in Angstroms) :    13.132253    5.945765   41.856174
  Angle(s) between unit vectors (in degrees)       :    90.000000   90.000000   90.000000


  Quantities derived from the lattice vectors (in Angstrom^-1):
  | Reciprocal lattice vector 1:  0.478454  0.000000  0.000000
  | Reciprocal lattice vector 2:  0.000000  1.056750  0.000000
  | Reciprocal lattice vector 3:  0.000000  0.000000  0.150114
  | Unit cell volume                               :   0.326818E+04  Angstrom^3

  Fractional coordinates:
                         L1                L2                L3
       atom_frac         1.00000000        0.00000000        0.35837007  Ti
       atom_frac         0.24999998        0.24999996        0.35837007  Ti
       atom_frac         0.09722087        0.24999996        0.35837076  O1
       atom_frac         0.25000173        0.00000000        0.38887374  O
       atom_frac         0.49999692        0.00000000        0.40630728  O
       atom_frac         0.15277782        0.24999996        0.43681025  O
       atom_frac         0.24999869        0.00000000        0.43681095  Ti
       atom_frac         0.49999867        0.24999996        0.43681095  Ti
       atom_frac         0.34721955        0.24999996        0.43681166  O
       atom_frac         0.00000038        0.00000000        0.46731462  O
       atom_frac         0.24999564        0.00000000        0.48474818  O
       atom_frac         0.40277643        0.24999996        0.51525113  O
       atom_frac         0.49999730        0.00000000        0.51525185  Ti
       atom_frac         0.24999732        0.24999996        0.51525185  Ti
       atom_frac         0.09721820        0.24999996        0.51525254  O
       atom_frac         0.24999907        0.00000000        0.54575550  O
       atom_frac         0.49999425        0.00000000        0.56318905  O
       atom_frac         0.15277508        0.24999996        0.59369201  O
       atom_frac         0.24999595        0.00000000        0.59369272  Ti
       atom_frac         0.49999600        0.24999996        0.59369272  Ti
       atom_frac         0.34721689        0.24999996        0.59369342  O
       atom_frac         0.49999768        0.00000000        0.62419640  O
       atom_frac         0.24999290        0.00000000        0.64162993  O
       atom_frac         1.00000000        0.50000008        0.35837007  Ti
       atom_frac         0.24999998        0.75000004        0.35837007  Ti
       atom_frac         0.09722087        0.75000004        0.35837076  O
       atom_frac         0.25000173        0.50000008        0.38887374  O
       atom_frac         0.49999692        0.50000008        0.40630728  O
       atom_frac         0.15277782        0.75000004        0.43681025  O
       atom_frac         0.24999869        0.50000008        0.43681095  Ti
       atom_frac         0.49999867        0.75000004        0.43681095  Ti
       atom_frac         0.34721955        0.75000004        0.43681166  O
       atom_frac         0.00000038        0.50000008        0.46731462  O
       atom_frac         0.24999564        0.50000008        0.48474818  O
       atom_frac         0.40277643        0.75000004        0.51525113  O
       atom_frac         0.49999730        0.50000008        0.51525185  Ti
       atom_frac         0.24999732        0.75000004        0.51525185  Ti
       atom_frac         0.09721820        0.75000004        0.51525254  O
       atom_frac         0.24999907        0.50000008        0.54575550  O
       atom_frac         0.49999425        0.50000008        0.56318905  O
       atom_frac         0.15277508        0.75000004        0.59369201  O
       atom_frac         0.24999595        0.50000008        0.59369272  Ti
       atom_frac         0.49999600        0.75000004        0.59369272  Ti
       atom_frac         0.34721689        0.75000004        0.59369342  O
       atom_frac         0.49999768        0.50000008        0.62419640  O
       atom_frac         0.24999290        0.50000008        0.64162993  O
       atom_frac         0.49999996        0.00000000        0.35837007  Ti
       atom_frac         0.75000002        0.24999996        0.35837007  Ti
       atom_frac         0.59722090        0.24999996        0.35837076  O
       atom_frac         0.75000169        0.00000000        0.38887374  O
       atom_frac         0.99999695        0.00000000        0.40630728  O
       atom_frac         0.65277778        0.24999996        0.43681025  O
       atom_frac         0.74999865        0.00000000        0.43681095  Ti
       atom_frac         0.99999863        0.24999996        0.43681095  Ti
       atom_frac         0.84721951        0.24999996        0.43681166  O
       atom_frac         0.50000034        0.00000000        0.46731462  O
       atom_frac         0.74999560        0.00000000        0.48474818  O
       atom_frac         0.90277647        0.24999996        0.51525113  O
       atom_frac         0.99999733        0.00000000        0.51525185  Ti
       atom_frac         0.74999735        0.24999996        0.51525185  Ti
       atom_frac         0.59721816        0.24999996        0.51525254  O
       atom_frac         0.74999903        0.00000000        0.54575550  O
       atom_frac         0.99999429        0.00000000        0.56318905  O
       atom_frac         0.65277512        0.24999996        0.59369201  O
       atom_frac         0.74999598        0.00000000        0.59369272  Ti
       atom_frac         0.99999596        0.24999996        0.59369272  Ti
       atom_frac         0.84721685        0.24999996        0.59369342  O
       atom_frac         0.99999772        0.00000000        0.62419640  O
       atom_frac         0.74999294        0.00000000        0.64162993  O
       atom_frac         0.49999996        0.50000008        0.35837007  Ti
       atom_frac         0.75000002        0.75000004        0.35837007  Ti
       atom_frac         0.59722090        0.75000004        0.35837076  O
       atom_frac         0.75000169        0.50000008        0.38887374  O
       atom_frac         0.99999695        0.50000008        0.40630728  O
       atom_frac         0.65277778        0.75000004        0.43681025  O
       atom_frac         0.74999865        0.50000008        0.43681095  Ti
       atom_frac         0.99999863        0.75000004        0.43681095  Ti
       atom_frac         0.84721951        0.75000004        0.43681166  O
       atom_frac         0.50000034        0.50000008        0.46731462  O
       atom_frac         0.74999560        0.50000008        0.48474818  O
       atom_frac         0.90277647        0.75000004        0.51525113  O
       atom_frac         0.99999733        0.50000008        0.51525185  Ti
       atom_frac         0.74999735        0.75000004        0.51525185  Ti
       atom_frac         0.59721816        0.75000004        0.51525254  O
       atom_frac         0.74999903        0.50000008        0.54575550  O
       atom_frac         0.99999429        0.50000008        0.56318905  O
       atom_frac         0.65277512        0.75000004        0.59369201  O
       atom_frac         0.74999598        0.50000008        0.59369272  Ti
       atom_frac         0.99999596        0.75000004        0.59369272  Ti
       atom_frac         0.84721685        0.75000004        0.59369342  O
       atom_frac         0.99999772        0.50000008        0.62419640  O
       atom_frac         0.74999294        0.50000008        0.64162993  O

  Initial moments and charges:
  |  Atom   Moment         Charge        Species
  |     1   0.000000E+00   0.000000E+00   Ti
  |     2   0.000000E+00   0.000000E+00   Ti
  |     3   0.000000E+00   0.000000E+00   O1
  |     4   0.000000E+00   0.000000E+00   O
  |     5   0.000000E+00   0.000000E+00   O
  |     6   0.000000E+00   0.000000E+00   O
  |     7   0.000000E+00   0.000000E+00   Ti
  |     8   0.000000E+00   0.000000E+00   Ti
  |     9   0.000000E+00   0.000000E+00   O
  |    10   0.000000E+00   0.000000E+00   O
  |    11   0.000000E+00   0.000000E+00   O
  |    12   0.000000E+00   0.000000E+00   O
  |    13   0.000000E+00   0.000000E+00   Ti
  |    14   0.000000E+00   0.000000E+00   Ti
  |    15   0.000000E+00   0.000000E+00   O
  |    16   0.000000E+00   0.000000E+00   O
  |    17   0.000000E+00   0.000000E+00   O
  |    18   0.000000E+00   0.000000E+00   O
  |    19   0.000000E+00   0.000000E+00   Ti
  |    20   0.000000E+00   0.000000E+00   Ti
  |    21   0.000000E+00   0.000000E+00   O
  |    22   0.000000E+00   0.000000E+00   O
  |    23   0.000000E+00   0.000000E+00   O
  |    24   0.000000E+00   0.000000E+00   Ti
  |    25   0.000000E+00   0.000000E+00   Ti
  |    26   0.000000E+00   0.000000E+00   O
  |    27   0.000000E+00   0.000000E+00   O
  |    28   0.000000E+00   0.000000E+00   O
  |    29   0.000000E+00   0.000000E+00   O
  |    30   0.000000E+00   0.000000E+00   Ti
  |    31   0.000000E+00   0.000000E+00   Ti
  |    32   0.000000E+00   0.000000E+00   O
  |    33   0.000000E+00   0.000000E+00   O
  |    34   0.000000E+00   0.000000E+00   O
  |    35   0.000000E+00   0.000000E+00   O
  |    36   0.000000E+00   0.000000E+00   Ti
  |    37   0.000000E+00   0.000000E+00   Ti
  |    38   0.000000E+00   0.000000E+00   O
  |    39   0.000000E+00   0.000000E+00   O
  |    40   0.000000E+00   0.000000E+00   O
  |    41   0.000000E+00   0.000000E+00   O
  |    42   0.000000E+00   0.000000E+00   Ti
  |    43   0.000000E+00   0.000000E+00   Ti
  |    44   0.000000E+00   0.000000E+00   O
  |    45   0.000000E+00   0.000000E+00   O
  |    46   0.000000E+00   0.000000E+00   O
  |    47   0.000000E+00   0.000000E+00   Ti
  |    48   0.000000E+00   0.000000E+00   Ti
  |    49   0.000000E+00   0.000000E+00   O
  |    50   0.000000E+00   0.000000E+00   O
  |    51   0.000000E+00   0.000000E+00   O
  |    52   0.000000E+00   0.000000E+00   O
  |    53   0.000000E+00   0.000000E+00   Ti
  |    54   0.000000E+00   0.000000E+00   Ti
  |    55   0.000000E+00   0.000000E+00   O
  |    56   0.000000E+00   0.000000E+00   O
  |    57   0.000000E+00   0.000000E+00   O
  |    58   0.000000E+00   0.000000E+00   O
  |    59   0.000000E+00   0.000000E+00   Ti
  |    60   0.000000E+00   0.000000E+00   Ti
  |    61   0.000000E+00   0.000000E+00   O
  |    62   0.000000E+00   0.000000E+00   O
  |    63   0.000000E+00   0.000000E+00   O
  |    64   0.000000E+00   0.000000E+00   O
  |    65   0.000000E+00   0.000000E+00   Ti
  |    66   0.000000E+00   0.000000E+00   Ti
  |    67   0.000000E+00   0.000000E+00   O
  |    68   0.000000E+00   0.000000E+00   O
  |    69   0.000000E+00   0.000000E+00   O
  |    70   0.000000E+00   0.000000E+00   Ti
  |    71   0.000000E+00   0.000000E+00   Ti
  |    72   0.000000E+00   0.000000E+00   O
  |    73   0.000000E+00   0.000000E+00   O
  |    74   0.000000E+00   0.000000E+00   O
  |    75   0.000000E+00   0.000000E+00   O
  |    76   0.000000E+00   0.000000E+00   Ti
  |    77   0.000000E+00   0.000000E+00   Ti
  |    78   0.000000E+00   0.000000E+00   O
  |    79   0.000000E+00   0.000000E+00   O
  |    80   0.000000E+00   0.000000E+00   O
  |    81   0.000000E+00   0.000000E+00   O
  |    82   0.000000E+00   0.000000E+00   Ti
  |    83   0.000000E+00   0.000000E+00   Ti
  |    84   0.000000E+00   0.000000E+00   O
  |    85   0.000000E+00   0.000000E+00   O
  |    86   0.000000E+00   0.000000E+00   O
  |    87   0.000000E+00   0.000000E+00   O
  |    88   0.000000E+00   0.000000E+00   Ti
  |    89   0.000000E+00   0.000000E+00   Ti
  |    90   0.000000E+00   0.000000E+00   O
  |    91   0.000000E+00   0.000000E+00   O
  |    92   0.000000E+00   0.000000E+00   O

  Slab Identifier: This is Z-oriented slab and maximum thickness of the vacuum is: 30.000 Angstrom.
 
  Finished reading input file 'geometry.in'.
 

 
  Consistency checks for stacksize environment parameter are next.
 
  | Maximum stacksize for task 0: unlimited
  | Maximum stacksize for task 1: unlimited
  | Maximum stacksize for task 2: unlimited
  | Maximum stacksize for task 3: unlimited
  | Maximum stacksize for task 4: unlimited
  | Maximum stacksize for task 5: unlimited
  | Maximum stacksize for task 6: unlimited
  | Maximum stacksize for task 7: unlimited
  | Maximum stacksize for task 8: unlimited
  | Maximum stacksize for task 9: unlimited
  | Maximum stacksize for task 10: unlimited
  | Maximum stacksize for task 11: unlimited
  | Maximum stacksize for task 12: unlimited
  | Maximum stacksize for task 13: unlimited
  | Maximum stacksize for task 14: unlimited
  | Maximum stacksize for task 15: unlimited
  | Maximum stacksize for task 16: unlimited
  | Maximum stacksize for task 17: unlimited
  | Maximum stacksize for task 18: unlimited
  | Maximum stacksize for task 19: unlimited
  | Maximum stacksize for task 20: unlimited
  | Maximum stacksize for task 21: unlimited
  | Maximum stacksize for task 22: unlimited
  | Maximum stacksize for task 23: unlimited
  | Maximum stacksize for task 24: unlimited
  | Maximum stacksize for task 25: unlimited
  | Maximum stacksize for task 26: unlimited
  | Maximum stacksize for task 27: unlimited
  | Maximum stacksize for task 28: unlimited
  | Maximum stacksize for task 29: unlimited
  | Maximum stacksize for task 30: unlimited
  | Maximum stacksize for task 31: unlimited
  | Maximum stacksize for task 32: unlimited
  | Maximum stacksize for task 33: unlimited
  | Maximum stacksize for task 34: unlimited
  | Maximum stacksize for task 35: unlimited
  | Maximum stacksize for task 36: unlimited
  | Maximum stacksize for task 37: unlimited
  | Maximum stacksize for task 38: unlimited
  | Maximum stacksize for task 39: unlimited
  | Maximum stacksize for task 40: unlimited
  | Maximum stacksize for task 41: unlimited
  | Maximum stacksize for task 42: unlimited
  | Maximum stacksize for task 43: unlimited
  | Maximum stacksize for task 44: unlimited
  | Maximum stacksize for task 45: unlimited
  | Maximum stacksize for task 46: unlimited
  | Maximum stacksize for task 47: unlimited
  | Maximum stacksize for task 48: unlimited
  | Maximum stacksize for task 49: unlimited
  | Maximum stacksize for task 50: unlimited
  | Maximum stacksize for task 51: unlimited
  | Maximum stacksize for task 52: unlimited
  | Maximum stacksize for task 53: unlimited
  | Maximum stacksize for task 54: unlimited
  | Maximum stacksize for task 55: unlimited
  | Maximum stacksize for task 56: unlimited
  | Maximum stacksize for task 57: unlimited
  | Maximum stacksize for task 58: unlimited
  | Maximum stacksize for task 59: unlimited
  | Maximum stacksize for task 60: unlimited
  | Maximum stacksize for task 61: unlimited
  | Maximum stacksize for task 62: unlimited
  | Maximum stacksize for task 63: unlimited
  | Maximum stacksize for task 64: unlimited
  | Maximum stacksize for task 65: unlimited
  | Maximum stacksize for task 66: unlimited
  | Maximum stacksize for task 67: unlimited
  | Maximum stacksize for task 68: unlimited
  | Maximum stacksize for task 69: unlimited
  | Maximum stacksize for task 70: unlimited
  | Maximum stacksize for task 71: unlimited
  | Maximum stacksize for task 72: unlimited
  | Maximum stacksize for task 73: unlimited
  | Maximum stacksize for task 74: unlimited
  | Maximum stacksize for task 75: unlimited
  | Maximum stacksize for task 76: unlimited
  | Maximum stacksize for task 77: unlimited
  | Maximum stacksize for task 78: unlimited
  | Maximum stacksize for task 79: unlimited
  | Maximum stacksize for task 80: unlimited
  | Maximum stacksize for task 81: unlimited
  | Maximum stacksize for task 82: unlimited
  | Maximum stacksize for task 83: unlimited
  | Maximum stacksize for task 84: unlimited
  | Maximum stacksize for task 85: unlimited
  | Maximum stacksize for task 86: unlimited
  | Maximum stacksize for task 87: unlimited
  | Maximum stacksize for task 88: unlimited
  | Maximum stacksize for task 89: unlimited
  | Maximum stacksize for task 90: unlimited
  | Maximum stacksize for task 91: unlimited
  | Maximum stacksize for task 92: unlimited
  | Maximum stacksize for task 93: unlimited
  | Maximum stacksize for task 94: unlimited
  | Maximum stacksize for task 95: unlimited
  | Maximum stacksize for task 96: unlimited
  | Maximum stacksize for task 97: unlimited
  | Maximum stacksize for task 98: unlimited
  | Maximum stacksize for task 99: unlimited
  | Maximum stacksize for task 100: unlimited
  | Maximum stacksize for task 101: unlimited
  | Maximum stacksize for task 102: unlimited
  | Maximum stacksize for task 103: unlimited
  | Maximum stacksize for task 104: unlimited
  | Maximum stacksize for task 105: unlimited
  | Maximum stacksize for task 106: unlimited
  | Maximum stacksize for task 107: unlimited
  | Maximum stacksize for task 108: unlimited
  | Maximum stacksize for task 109: unlimited
  | Maximum stacksize for task 110: unlimited
  | Maximum stacksize for task 111: unlimited
  | Maximum stacksize for task 112: unlimited
  | Maximum stacksize for task 113: unlimited
  | Maximum stacksize for task 114: unlimited
  | Maximum stacksize for task 115: unlimited
  | Maximum stacksize for task 116: unlimited
  | Maximum stacksize for task 117: unlimited
  | Maximum stacksize for task 118: unlimited
  | Maximum stacksize for task 119: unlimited
  | Maximum stacksize for task 120: unlimited
  | Maximum stacksize for task 121: unlimited
  | Maximum stacksize for task 122: unlimited
  | Maximum stacksize for task 123: unlimited
  | Maximum stacksize for task 124: unlimited
  | Maximum stacksize for task 125: unlimited
  | Maximum stacksize for task 126: unlimited
  | Maximum stacksize for task 127: unlimited
  | Current stacksize for task 0: unlimited
  | Current stacksize for task 1: unlimited
  | Current stacksize for task 2: unlimited
  | Current stacksize for task 3: unlimited
  | Current stacksize for task 4: unlimited
  | Current stacksize for task 5: unlimited
  | Current stacksize for task 6: unlimited
  | Current stacksize for task 7: unlimited
  | Current stacksize for task 8: unlimited
  | Current stacksize for task 9: unlimited
  | Current stacksize for task 10: unlimited
  | Current stacksize for task 11: unlimited
  | Current stacksize for task 12: unlimited
  | Current stacksize for task 13: unlimited
  | Current stacksize for task 14: unlimited
  | Current stacksize for task 15: unlimited
  | Current stacksize for task 16: unlimited
  | Current stacksize for task 17: unlimited
  | Current stacksize for task 18: unlimited
  | Current stacksize for task 19: unlimited
  | Current stacksize for task 20: unlimited
  | Current stacksize for task 21: unlimited
  | Current stacksize for task 22: unlimited
  | Current stacksize for task 23: unlimited
  | Current stacksize for task 24: unlimited
  | Current stacksize for task 25: unlimited
  | Current stacksize for task 26: unlimited
  | Current stacksize for task 27: unlimited
  | Current stacksize for task 28: unlimited
  | Current stacksize for task 29: unlimited
  | Current stacksize for task 30: unlimited
  | Current stacksize for task 31: unlimited
  | Current stacksize for task 32: unlimited
  | Current stacksize for task 33: unlimited
  | Current stacksize for task 34: unlimited
  | Current stacksize for task 35: unlimited
  | Current stacksize for task 36: unlimited
  | Current stacksize for task 37: unlimited
  | Current stacksize for task 38: unlimited
  | Current stacksize for task 39: unlimited
  | Current stacksize for task 40: unlimited
  | Current stacksize for task 41: unlimited
  | Current stacksize for task 42: unlimited
  | Current stacksize for task 43: unlimited
  | Current stacksize for task 44: unlimited
  | Current stacksize for task 45: unlimited
  | Current stacksize for task 46: unlimited
  | Current stacksize for task 47: unlimited
  | Current stacksize for task 48: unlimited
  | Current stacksize for task 49: unlimited
  | Current stacksize for task 50: unlimited
  | Current stacksize for task 51: unlimited
  | Current stacksize for task 52: unlimited
  | Current stacksize for task 53: unlimited
  | Current stacksize for task 54: unlimited
  | Current stacksize for task 55: unlimited
  | Current stacksize for task 56: unlimited
  | Current stacksize for task 57: unlimited
  | Current stacksize for task 58: unlimited
  | Current stacksize for task 59: unlimited
  | Current stacksize for task 60: unlimited
  | Current stacksize for task 61: unlimited
  | Current stacksize for task 62: unlimited
  | Current stacksize for task 63: unlimited
  | Current stacksize for task 64: unlimited
  | Current stacksize for task 65: unlimited
  | Current stacksize for task 66: unlimited
  | Current stacksize for task 67: unlimited
  | Current stacksize for task 68: unlimited
  | Current stacksize for task 69: unlimited
  | Current stacksize for task 70: unlimited
  | Current stacksize for task 71: unlimited
  | Current stacksize for task 72: unlimited
  | Current stacksize for task 73: unlimited
  | Current stacksize for task 74: unlimited
  | Current stacksize for task 75: unlimited
  | Current stacksize for task 76: unlimited
  | Current stacksize for task 77: unlimited
  | Current stacksize for task 78: unlimited
  | Current stacksize for task 79: unlimited
  | Current stacksize for task 80: unlimited
  | Current stacksize for task 81: unlimited
  | Current stacksize for task 82: unlimited
  | Current stacksize for task 83: unlimited
  | Current stacksize for task 84: unlimited
  | Current stacksize for task 85: unlimited
  | Current stacksize for task 86: unlimited
  | Current stacksize for task 87: unlimited
  | Current stacksize for task 88: unlimited
  | Current stacksize for task 89: unlimited
  | Current stacksize for task 90: unlimited
  | Current stacksize for task 91: unlimited
  | Current stacksize for task 92: unlimited
  | Current stacksize for task 93: unlimited
  | Current stacksize for task 94: unlimited
  | Current stacksize for task 95: unlimited
  | Current stacksize for task 96: unlimited
  | Current stacksize for task 97: unlimited
  | Current stacksize for task 98: unlimited
  | Current stacksize for task 99: unlimited
  | Current stacksize for task 100: unlimited
  | Current stacksize for task 101: unlimited
  | Current stacksize for task 102: unlimited
  | Current stacksize for task 103: unlimited
  | Current stacksize for task 104: unlimited
  | Current stacksize for task 105: unlimited
  | Current stacksize for task 106: unlimited
  | Current stacksize for task 107: unlimited
  | Current stacksize for task 108: unlimited
  | Current stacksize for task 109: unlimited
  | Current stacksize for task 110: unlimited
  | Current stacksize for task 111: unlimited
  | Current stacksize for task 112: unlimited
  | Current stacksize for task 113: unlimited
  | Current stacksize for task 114: unlimited
  | Current stacksize for task 115: unlimited
  | Current stacksize for task 116: unlimited
  | Current stacksize for task 117: unlimited
  | Current stacksize for task 118: unlimited
  | Current stacksize for task 119: unlimited
  | Current stacksize for task 120: unlimited
  | Current stacksize for task 121: unlimited
  | Current stacksize for task 122: unlimited
  | Current stacksize for task 123: unlimited
  | Current stacksize for task 124: unlimited
  | Current stacksize for task 125: unlimited
  | Current stacksize for task 126: unlimited
  | Current stacksize for task 127: unlimited
 
  Consistency checks for the contents of control.in are next.
 
  MPI_IN_PLACE appears to work with this MPI implementation.
  | Keeping use_mpi_in_place .true. (see manual).
  Target number of points in a grid batch is not set. Defaulting to  100
  Method for grid partitioning is not set. Defaulting to parallel hash+maxmin partitioning.
  Batch size limit is not set. Defaulting to    200
  By default, will store active basis functions for each batch.
  If in need of memory, prune_basis_once .false. can be used to disable this option.
  communication_type for Hartree potential was not specified.
  Defaulting to calc_hartree .
  Defaulting to Pulay charge density mixer.
  Pulay mixer: Number of relevant iterations not set.
  Defaulting to    8 iterations.
  Pulay mixer: Number of initial linear mixing iterations not set.
  Defaulting to    0 iterations.
  Work space size for distributed Hartree potential not set.
  Defaulting to   0.200000E+03 MB.
  Mixing parameter for charge density mixing has not been set.
  Using default: charge_mix_param =     0.0500.
  The mixing parameter will be adjusted in iteration number     2 of each s.c.f. cycle (i.e., each geometry step).
  Mixing parameter for spin density mixing has not been set.
  Using charge_mix_param as default:     0.0500.
  Algorithm-dependent basis array size parameters:
  | n_max_pulay                         :        8
  Maximum number of self-consistency iterations not provided.
  Presetting  1000 iterations.
  Presetting      1001 iterations before the initial mixing cycle
  is restarted anyway using the sc_init_iter criterion / keyword.
  Presetting a factor      1.000 between actual scf density residual
  and density convergence criterion sc_accuracy_rho below which sc_init_iter
  takes no effect.
 * No s.c.f. convergence criteria (sc_accuracy_*) were provided in control.in.
 * The run will proceed with a reasonable default guess, but please check whether.
 * the s.c.f. cycles seem to take too much or too little time.
  Calculation of forces was not defined in control.in. No forces will be calculated.
  Geometry relaxation not requested: no relaxation will be performed.
 * Notice: The s.c.f. convergence criterion sc_accuracy_rho was not provided.
 * We used to stop in this case, and ask the user to provide reasonable
 * scf convergence criteria. However, this led some users to employ criteria
 * that led to extremely long run times, e.g., for simple relaxation.
 * We now preset a default value for sc_accuracy_rho if it is not set.
 * You may still wish to check if this setting is too tight or too loose for your needs.
 * Based on n_atoms and forces and force-correction status, FHI-aims chose sc_accuracy_rho =  0.391578E-05 .
  No accuracy limit for integral partition fn. given. Defaulting to  0.1000E-14.
  No threshold value for u(r) in integrations given. Defaulting to  0.1000E-05.
  No occupation type (smearing scheme) given. Defaulting to Gaussian broadening, width =  0.1000E-01 eV.
  The width will be adjusted in iteration number     2 of each s.c.f. cycle (i.e., each geometry step).
  No accuracy for occupation numbers given. Defaulting to  0.1000E-12.
  No threshold value for occupation numbers given. Defaulting to  0.0000E+00.
  No accuracy for fermi level given. Defaulting to  0.1000E-19.
  Maximum # of iterations to find E_F not set. Defaulting to  200.
  Will not use alltoall communication since running on < 1024 CPUs.
  Threshold for basis singularities not set.
  Default threshold for basis singularities:  0.1000E-04
  partition_type (choice of integration weights) for integrals was not specified.
  | Using a version of the partition function of Stratmann and coworkers ('stratmann_sparse').
  | At each grid point, the set of atoms used to build the partition table is smoothly restricted to
  | only those atoms whose free-atom density would be non-zero at that grid point.
  Partitioning for Hartree potential was not defined. Using partition_type for integrals.
  | Adjusted default value of keyword multip_moments_threshold to:       0.10000000E-11
  | This value may affect high angular momentum components of the Hartree potential in periodic systems.
  Angular momentum expansion for Kerker preconditioner not set explicitly.
  | Using default value of   0
  No explicit requirement for turning off preconditioner.
  | By default, it will be turned off when the charge convergence reaches
  | sc_accuracy_rho  =   0.391578E-05
  No special mixing parameter while Kerker preconditioner is on.
  Using default: charge_mix_param =     0.0500.
  No q(lm)/r^(l+1) cutoff set for long-range Hartree potential.
  | Using default value of  0.100000E-09 .
  | Verify using the multipole_threshold keyword.
  Defaulting to new monopole extrapolation.
  Density update method: automatic selection selected.
  Using density matrix based charge density update.
  Using density matrix based charge density update.
  Using packed matrix style: index .
  Defaulting to use time-reversal symmetry for k-point grid.
  Charge integration errors on the 3D integration grid will be compensated
  by explicit normalization and distribution of residual charges.
  Use the "compensate_multipole_errors" flag to change this behaviour.
  Set 'collect_eigenvectors' to be '.true.' for all serial calculations. This is mandatory.
  Set 'collect_eigenvectors' to be '.true.' for KS_method lapack_fast and serial.
  Found potential conflicts with setting 'use_local_index' for this calculation. Will not set it.
 
  Consistency checks for the contents of geometry.in are next.
 

  Range separation radius for Ewald summation (hartree_convergence_parameter):      4.77692198 bohr.
 * Warning: Initial charge and total charge of the system are inconsistent.
 * Selected charge in control.in:     0.1000* Sum of initial charges in geometry.in:     0.0000
  Number of empty states per atom not set in control.in - providing a guess from actual geometry.
  | Total number of empty states used during s.c.f. cycle:      356
  If you use a very high smearing, use empty_states (per atom!) in control.in to increase this value.

  Structure-dependent array size parameters: 
  | Number of distinct atom types in initial rho :        3
  | Maximum number of distinct radial functions  :       39
  | Maximum number of basis functions            :     1888
  | Number of Kohn-Sham states (occupied + empty):      948
------------------------------------------------------------
  After read_input_data [GB]:    962.43

  Performing system and environment tests:
  *** Environment variable OMP_NUM_THREADS is not set
  *** For performance reasons you might want to set it to 1
  | Checking for ScaLAPACK...
  | Testing pdtran()...
  | All pdtran() tests passed.
  After prepare_system [GB]:    961.80

------------------------------------------------------------
          Preparing all fixed parts of the calculation.
------------------------------------------------------------
  Determining machine precision:
    2.225073858507201E-308
  Setting up grids for atomic and cluster calculations.

  Creating wave function, potential, and density for free atoms.
  Runtime choices for atomic solver:
  | atomic solver xc        : PBE
  | compute density gradient: 1
  | compute kinetic density : F

  Species: Ti

  List of occupied orbitals and eigenvalues:
    n    l              occ      energy [Ha]    energy [eV]
    1    0           2.0000      -179.959082     -4896.9358
    2    0           2.0000       -19.727662      -536.8170
    3    0           2.0000        -2.283029       -62.1244
    4    0           2.0000        -0.148384        -4.0377
    2    1           6.0000       -16.317278      -444.0157
    3    1           6.0000        -1.409348       -38.3503
    3    2           2.0000        -0.139340        -3.7916


  Species: O

  List of occupied orbitals and eigenvalues:
    n    l              occ      energy [Ha]    energy [eV]
    1    0           2.0000       -18.926989      -515.0296
    2    0           2.0000        -0.880247       -23.9527
    2    1           4.0000        -0.331514        -9.0210


  Species: O1

  List of occupied orbitals and eigenvalues:
    n    l              occ      energy [Ha]    energy [eV]
    1    0           2.0000       -19.443516      -529.0850
    2    0           2.0000        -0.901438       -24.5294
    2    1           4.1000        -0.339232        -9.2310

  Spin-polarized or charged system:
  Charge density initialized according to selected moments and charges.

  Creating spin-polarized density from free atoms.

  Species: Ti
  Charge:   0.000000
  Moment:   0.000000

  List of occupied orbitals and eigenvalues:
    n    l      energy [Ha]    energy [eV]    occupation
  Spin-up
    1    0      -179.959082     -4896.9358     1.00000000
    2    0       -19.727662      -536.8170     1.00000000
    3    0        -2.283029       -62.1244     1.00000000
    4    0        -0.148384        -4.0377     1.00000000
    2    1       -16.317278      -444.0157     3.00000000
    3    1        -1.409348       -38.3503     3.00000000
    3    2        -0.139340        -3.7916     1.00000000
  Spin-down
    1    0      -179.959082     -4896.9358     1.00000000
    2    0       -19.727662      -536.8170     1.00000000
    3    0        -2.283029       -62.1244     1.00000000
    4    0        -0.148384        -4.0377     1.00000000
    2    1       -16.317278      -444.0157     3.00000000
    3    1        -1.409348       -38.3503     3.00000000
    3    2        -0.139340        -3.7916     1.00000000


  Species: O1
  Charge:   0.000000
  Moment:   0.000000

  List of occupied orbitals and eigenvalues:
    n    l      energy [Ha]    energy [eV]    occupation
  Spin-up
    1    0       -19.443516      -529.0850     1.00000000
    2    0        -0.901438       -24.5294     1.00000000
    2    1        -0.339232        -9.2310     2.05000000
  Spin-down
    1    0       -19.443516      -529.0850     1.00000000
    2    0        -0.901438       -24.5294     1.00000000
    2    1        -0.339232        -9.2310     2.05000000


  Species: O
  Charge:   0.000000
  Moment:   0.000000

  List of occupied orbitals and eigenvalues:
    n    l      energy [Ha]    energy [eV]    occupation
  Spin-up
    1    0       -18.926989      -515.0296     1.00000000
    2    0        -0.880247       -23.9527     1.00000000
    2    1        -0.331514        -9.0210     2.00000000
  Spin-down
    1    0       -18.926989      -515.0296     1.00000000
    2    0        -0.880247       -23.9527     1.00000000
    2    1        -0.331514        -9.0210     2.00000000


  Adding cutoff potential to free-atom effective potential.
  Creating fixed part of basis set: Ionic, confined, hydrogenic.
 
  Ti                   ion:

  List of free ionic orbitals and eigenvalues:
    n    l      energy [Ha]    energy [eV]
    1    0      -180.819616     -4920.3521
    2    0       -20.608761      -560.7929
    3    0        -3.115729       -84.7833
    4    0        -0.697188       -18.9715
    2    1       -17.196209      -467.9327
    3    1        -2.231296       -60.7167
    3    2        -0.911363       -24.7995


  List of ionic basis orbitals and eigenvalues:
    n    l      energy [Ha]    energy [eV]    outer radius [A]
    4    1        -0.517739       -14.0884       4.592117
    4    0        -0.696824       -18.9615       4.536321

 
  Ti                   hydrogenic:
 
  List of hydrogenic basis orbitals: 
    n    l      effective z      eigenvalue [eV]  inner max. [A]     outer max. [A]     outer radius [A]   
    4    3         8.000000       -54.4222           1.059019           1.059019           4.267343
    3    2         2.700000       -10.7798           1.726925           1.726925           4.592117
 
 
  O                    hydrogenic:
 
  List of hydrogenic basis orbitals: 
    n    l      effective z      eigenvalue [eV]  inner max. [A]     outer max. [A]     outer radius [A]   
    2    1         1.800000       -10.9749           1.164242           1.164242           4.578029
    3    2         7.600000       -87.3180           0.624125           0.624125           3.251020
    3    0         6.400000       -61.9207           0.061167           1.081902           4.001998
 
 
  O1                   ion:

  List of free ionic orbitals and eigenvalues:
    n    l      energy [Ha]    energy [eV]
    1    0       -21.112423      -574.4983
    2    0        -2.242749       -61.0283
    2    1        -1.673061       -45.5263


  List of ionic basis orbitals and eigenvalues:
    n    l      energy [Ha]    energy [eV]    outer radius [A]
    2    1        -1.673055       -45.5262       3.497755

 
  O1                   hydrogenic:
 
  List of hydrogenic basis orbitals: 
    n    l      effective z      eigenvalue [eV]  inner max. [A]     outer max. [A]     outer radius [A]   
    2    1         1.800000       -11.0118           1.178329           1.178329           5.431529
    3    2         7.600000       -87.3182           0.624002           0.624002           3.540777
    3    0         6.400000       -61.9209           0.061155           1.081688           4.305727
    4    3        11.600000      -114.4238           0.731486           0.731486           3.584329
    3    1         6.200000       -58.1113           0.255630           1.030066           4.305727
    3    2         5.600000       -47.4081           0.847066           0.847066           4.412300
    5    4        17.600000      -168.5799           0.749592           0.749592           3.371799
    1    0         0.750000        -7.6499           0.705145           0.705145           5.431529
    4    3        10.800000       -99.1854           0.787158           0.787158           3.763959
    4    2         4.700000       -18.6841           0.758812           2.365340           5.498337
    2    0         6.800000      -157.2818           0.059678           0.406783           2.739079
    1    0        12.000000     -1959.2197           0.043962           0.043962           0.816563
    1    0        10.000000     -1360.5692           0.052810           0.052810           0.980908
    1    0         6.000000      -489.8049           0.088248           0.088248           1.560915
    2    0        10.000000      -340.1423           0.040357           0.278468           2.093154
    2    1         8.000000      -217.6911           0.265179           0.265179           2.365340
    2    1         6.000000      -122.4512           0.351279           0.351279           2.841399
    3    2         8.000000       -96.7515           0.594223           0.594223           3.455255
 
  Creating atomic-like basis functions for current effective potential.

  Species Ti                  :

  List of atomic basis orbitals and eigenvalues:
    n    l      energy [Ha]    energy [eV]    outer radius [A]
    1    0      -179.959082     -4896.9358       0.490254
    2    0       -19.727662      -536.8170       1.491292
    3    0        -2.283029       -62.1244       4.014314
    4    0        -0.148384        -4.0377       4.592117
    2    1       -16.317278      -444.0157       1.585290
    3    1        -1.409348       -38.3503       4.267343
    3    2        -0.139340        -3.7916       4.536321


  Species O                   :

  List of atomic basis orbitals and eigenvalues:
    n    l      energy [Ha]    energy [eV]    outer radius [A]
    1    0       -18.926989      -515.0296       1.415765
    2    0        -0.880247       -23.9527       4.413171
    2    1        -0.331514        -9.0210       4.522403


  Species O1                  :

  List of atomic basis orbitals and eigenvalues:
    n    l      energy [Ha]    energy [eV]    outer radius [A]
    1    0       -19.443516      -529.0850       1.398286
    2    0        -0.901438       -24.5294       5.047388
    2    1        -0.339232        -9.2310       5.300339

  Assembling full basis from fixed parts.
  | Species Ti :   atomic orbital   1 s accepted.
  | Species Ti :   atomic orbital   2 s accepted.
  | Species Ti :   atomic orbital   3 s accepted.
  | Species Ti :    ionic orbital   4 s accepted.
  | Species Ti :   atomic orbital   4 s accepted.
  | Species Ti :   atomic orbital   2 p accepted.
  | Species Ti :   atomic orbital   3 p accepted.
  | Species Ti :    ionic orbital   4 p accepted.
  | Species Ti :   atomic orbital   3 d accepted.
  | Species Ti :    hydro orbital   3 d accepted.
  | Species Ti :    hydro orbital   4 f accepted.
  | Species O :   atomic orbital   1 s accepted.
  | Species O :    hydro orbital   3 s accepted.
  | Species O :   atomic orbital   2 s accepted.
  | Species O :   atomic orbital   2 p accepted.
  | Species O :    hydro orbital   2 p accepted.
  | Species O :    hydro orbital   3 d accepted.
  | Species O1 :    hydro orbital   1 s accepted.
  | Species O1 :    hydro orbital   1 s accepted.
[...]
    723       0.00000          -0.075433           -2.05263
    724       0.00000          -0.074580           -2.02942
    725       0.00000          -0.073111           -1.98946
    726       0.00000          -0.072716           -1.97871
    727       0.00000          -0.069776           -1.89871
    728       0.00000          -0.067924           -1.84832
    729       0.00000          -0.066656           -1.81380
    730       0.00000          -0.066400           -1.80683
    731       0.00000          -0.065327           -1.77764
    732       0.00000          -0.064984           -1.76832
    733       0.00000          -0.062941           -1.71272
    734       0.00000          -0.060145           -1.63662
    735       0.00000          -0.059851           -1.62863
    736       0.00000          -0.059625           -1.62248
    737       0.00000          -0.059084           -1.60777
    738       0.00000          -0.058973           -1.60474
    739       0.00000          -0.051845           -1.41078
    740       0.00000          -0.051812           -1.40988
    741       0.00000          -0.048397           -1.31694
    742       0.00000          -0.046060           -1.25336
    743       0.00000          -0.045055           -1.22602
    744       0.00000          -0.044442           -1.20934
    745       0.00000          -0.043206           -1.17570
    746       0.00000          -0.036662           -0.99761
    747       0.00000          -0.034052           -0.92659
    748       0.00000          -0.026516           -0.72154
    749       0.00000          -0.022066           -0.60044
    750       0.00000          -0.019561           -0.53230
    751       0.00000          -0.015848           -0.43125
    752       0.00000          -0.015786           -0.42956
    753       0.00000          -0.012229           -0.33278
    754       0.00000          -0.012147           -0.33052
    755       0.00000          -0.011173           -0.30402
    756       0.00000          -0.010798           -0.29382
    757       0.00000          -0.010777           -0.29325
    758       0.00000          -0.009302           -0.25312
    759       0.00000          -0.007697           -0.20944
    760       0.00000          -0.007659           -0.20841
    761       0.00000          -0.004642           -0.12631
    762       0.00000          -0.004106           -0.11173
    763       0.00000           0.000776            0.02112
    764       0.00000           0.004184            0.11386
    765       0.00000           0.009693            0.26376
    766       0.00000           0.010496            0.28561
    767       0.00000           0.027239            0.74121
    768       0.00000           0.028427            0.77354
    769       0.00000           0.030087            0.81871
    770       0.00000           0.033478            0.91099
    771       0.00000           0.033598            0.91425
    772       0.00000           0.041241            1.12222
    773       0.00000           0.042058            1.14446
    774       0.00000           0.043930            1.19539
    775       0.00000           0.051048            1.38910
    776       0.00000           0.057191            1.55624
    777       0.00000           0.062429            1.69879
    778       0.00000           0.066638            1.81331
    779       0.00000           0.072835            1.98195
    780       0.00000           0.078777            2.14362
    781       0.00000           0.083903            2.28312
    782       0.00000           0.083994            2.28559
    783       0.00000           0.084721            2.30537
    784       0.00000           0.089712            2.44118
    785       0.00000           0.092577            2.51915
    786       0.00000           0.093950            2.55652
    787       0.00000           0.096045            2.61352
    788       0.00000           0.099023            2.69454
    789       0.00000           0.105940            2.88277
    790       0.00000           0.106545            2.89925
    791       0.00000           0.111661            3.03846
    792       0.00000           0.118724            3.23065
    793       0.00000           0.118886            3.23505
    794       0.00000           0.121475            3.30550
    795       0.00000           0.127878            3.47974
    796       0.00000           0.128858            3.50640
    797       0.00000           0.131242            3.57127
    798       0.00000           0.133391            3.62975
    799       0.00000           0.134234            3.65270
    800       0.00000           0.139900            3.80687
    801       0.00000           0.142856            3.88732
    802       0.00000           0.151246            4.11562
    803       0.00000           0.151326            4.11780
    804       0.00000           0.158955            4.32539
    805       0.00000           0.160312            4.36232
    806       0.00000           0.161177            4.38585
    807       0.00000           0.164456            4.47508
    808       0.00000           0.166778            4.53825
    809       0.00000           0.169782            4.62001
    810       0.00000           0.171466            4.66583
    811       0.00000           0.176260            4.79629
    812       0.00000           0.181403            4.93624
    813       0.00000           0.183512            4.99360
    814       0.00000           0.185590            5.05017
    815       0.00000           0.186521            5.07548
    816       0.00000           0.186891            5.08556
    817       0.00000           0.188398            5.12658
    818       0.00000           0.194700            5.29804
    819       0.00000           0.196222            5.33947
    820       0.00000           0.199781            5.43631
    821       0.00000           0.199968            5.44141
    822       0.00000           0.207237            5.63920
    823       0.00000           0.210328            5.72332
    824       0.00000           0.210504            5.72811
    825       0.00000           0.212385            5.77928
    826       0.00000           0.214210            5.82895
    827       0.00000           0.215621            5.86735
    828       0.00000           0.217780            5.92609
    829       0.00000           0.224256            6.10233
    830       0.00000           0.224804            6.11724
    831       0.00000           0.226437            6.16167
    832       0.00000           0.227698            6.19599
    833       0.00000           0.230401            6.26954
    834       0.00000           0.236311            6.43036
    835       0.00000           0.238083            6.47858
    836       0.00000           0.240717            6.55023
    837       0.00000           0.241873            6.58171
    838       0.00000           0.243205            6.61796
    839       0.00000           0.247605            6.73768
    840       0.00000           0.252456            6.86968
    841       0.00000           0.257960            7.01944
    842       0.00000           0.257994            7.02038
    843       0.00000           0.258601            7.03689
    844       0.00000           0.259989            7.07467
    845       0.00000           0.262945            7.15509
    846       0.00000           0.263709            7.17590
    847       0.00000           0.264967            7.21013
    848       0.00000           0.266377            7.24848
    849       0.00000           0.267951            7.29131
    850       0.00000           0.268949            7.31847
    851       0.00000           0.272269            7.40881
    852       0.00000           0.278811            7.58685
    853       0.00000           0.282835            7.69633
    854       0.00000           0.288095            7.83947
    855       0.00000           0.288786            7.85826
    856       0.00000           0.290898            7.91575
    857       0.00000           0.291562            7.93382
    858       0.00000           0.293655            7.99077
    859       0.00000           0.293755            7.99349
    860       0.00000           0.297794            8.10340
    861       0.00000           0.298399            8.11985
    862       0.00000           0.300092            8.16591
    863       0.00000           0.300534            8.17796
    864       0.00000           0.302822            8.24021
    865       0.00000           0.305607            8.31600
    866       0.00000           0.309287            8.41612
    867       0.00000           0.311064            8.46449
    868       0.00000           0.315181            8.57652
    869       0.00000           0.316382            8.60919
    870       0.00000           0.320029            8.70844
    871       0.00000           0.320066            8.70945
    872       0.00000           0.321591            8.75095
    873       0.00000           0.323536            8.80385
    874       0.00000           0.325206            8.84931
    875       0.00000           0.327605            8.91458
    876       0.00000           0.327981            8.92482
    877       0.00000           0.328229            8.93157
    878       0.00000           0.332165            9.03867
    879       0.00000           0.333403            9.07235
    880       0.00000           0.334527            9.10295
    881       0.00000           0.337184            9.17525
    882       0.00000           0.337477            9.18321
    883       0.00000           0.339259            9.23171
    884       0.00000           0.343133            9.33711
    885       0.00000           0.343802            9.35533
    886       0.00000           0.345833            9.41059
    887       0.00000           0.347146            9.44632
    888       0.00000           0.349741            9.51694
    889       0.00000           0.352428            9.59006
    890       0.00000           0.352913            9.60325
    891       0.00000           0.355495            9.67350
    892       0.00000           0.356218            9.69319
    893       0.00000           0.357567            9.72989
    894       0.00000           0.357574            9.73009
    895       0.00000           0.361232            9.82963
    896       0.00000           0.363571            9.89327
    897       0.00000           0.367974           10.01308
    898       0.00000           0.368020           10.01434
    899       0.00000           0.371129           10.09892
    900       0.00000           0.371154           10.09961
    901       0.00000           0.374528           10.19143
    902       0.00000           0.377595           10.27488
    903       0.00000           0.378959           10.31199
    904       0.00000           0.379706           10.33233
    905       0.00000           0.381193           10.37278
    906       0.00000           0.386339           10.51282
    907       0.00000           0.390472           10.62527
    908       0.00000           0.392592           10.68296
    909       0.00000           0.396292           10.78367
    910       0.00000           0.397079           10.80507
    911       0.00000           0.398567           10.84555
    912       0.00000           0.404399           11.00426
    913       0.00000           0.405750           11.04102
    914       0.00000           0.406923           11.07294
    915       0.00000           0.408230           11.10849
    916       0.00000           0.411234           11.19026
    917       0.00000           0.412239           11.21758
    918       0.00000           0.416601           11.33630
    919       0.00000           0.417388           11.35771
    920       0.00000           0.418644           11.39189
    921       0.00000           0.422796           11.50485
    922       0.00000           0.423769           11.53133
    923       0.00000           0.428697           11.66543
    924       0.00000           0.428863           11.66997
    925       0.00000           0.433676           11.80093
    926       0.00000           0.439218           11.95174
    927       0.00000           0.441171           12.00488
    928       0.00000           0.442115           12.03056
    929       0.00000           0.445639           12.12645
    930       0.00000           0.447227           12.16967
    931       0.00000           0.448360           12.20048
    932       0.00000           0.450556           12.26025
    933       0.00000           0.452000           12.29954
    934       0.00000           0.454052           12.35539
    935       0.00000           0.457014           12.43598
    936       0.00000           0.459652           12.50776
    937       0.00000           0.464264           12.63327
    938       0.00000           0.466290           12.68839
    939       0.00000           0.469457           12.77458
    940       0.00000           0.472217           12.84969
    941       0.00000           0.472529           12.85817
    942       0.00000           0.481526           13.10298
    943       0.00000           0.486873           13.24849
    944       0.00000           0.488642           13.29662
    945       0.00000           0.490516           13.34761
    946       0.00000           0.493214           13.42103
    947       0.00000           0.493824           13.43763
    948       0.00000           0.495498           13.48319

  Current spin moment of the entire structure :
  | N = N_up - N_down (sum over all k points):         0.00000
  | S (sum over all k points)                :         0.00000

  What follows are estimated values for band gap, HOMO, LUMO, etc.
  | They are estimated on a discrete k-point grid and not necessarily exact.
  | For converged numbers, create a DOS and/or band structure plot on a denser k-grid.

  Highest occupied state (VBM) at     -7.46132108 eV (relative to internal zero)
  | Occupation number:      0.91828359
  | K-point:       6 at    0.500000    0.500000    0.000000 (in units of recip. lattice)
  | Spin channel:        1

  Lowest unoccupied state (CBM) at    -7.44226158 eV (relative to internal zero)
  | Occupation number:      0.09649203
  | K-point:       5 at    0.500000    0.250000    0.000000 (in units of recip. lattice)
  | Spin channel:        2

  ESTIMATED overall HOMO-LUMO gap:      0.01905950 eV between HOMO at k-point 6 and LUMO at k-point 5
  | This appears to be an indirect band gap.
  | Smallest direct gap :      0.09995743 eV for k_point 2 at    0.000000    0.250000    0.000000 (in units of recip. lattice)
  | Direct gap HOMO spin channel :     1
  | Direct gap LUMO spin channel :     1
  However, this system has fractional occupation numbers. Since we use a finite k-point grid,
  this material is metallic within the approximate finite broadening function (occupation_type)
  applied to determine the occupation numbers.

  Total energy components:
  | Sum of eigenvalues            :      -18938.57469677 Ha     -515344.83795572 eV
  | XC energy correction          :       -1858.38856132 Ha      -50569.32569252 eV
  | XC potential correction       :        2402.98165221 Ha       65388.45768483 eV
  | Free-atom electrostatic energy:      -13548.99979929 Ha     -368687.04312884 eV
  | Hartree energy correction     :          17.80680699 Ha         484.54787164 eV
  | Entropy correction            :          -0.00002467 Ha          -0.00067120 eV
  | ---------------------------
  | Total energy                  :      -31925.17459818 Ha     -868728.20122061 eV
  | Total energy, T -> 0          :      -31925.17462284 Ha     -868728.20189181 eV  <-- do not rely on this value for anything but (periodic) metals
  | Electronic free energy        :      -31925.17464751 Ha     -868728.20256302 eV

  Derived energy quantities:
  | Kinetic energy                :       32129.58839310 Ha      874290.58359145 eV
  | Electrostatic energy          :      -62196.37442996 Ha    -1692449.45911954 eV
  | Energy correction for multipole
  | error in Hartree potential    :           0.01719813 Ha           0.46798500 eV
  | Sum of eigenvalues per atom                           :       -5601.57432561 eV
  | Total energy (T->0) per atom                          :       -9442.69784665 eV  <-- do not rely on this value for anything but (periodic) metals
  | Electronic free energy per atom                       :       -9442.69785395 eV
  Evaluating new KS density using the density matrix
  Evaluating density matrix
  Evaluating density matrix
  Time summed over all CPUs for getting density from density matrix: real work      300.406 s, elapsed      778.289 s
          Density and Forces (generate densmat)        :  max(cpu_time)    wall_clock(cpu1)
          | Total time                                  :      153.297 s    ************ s
          Density and Forces (densmat)                 :  max(cpu_time)    wall_clock(cpu1)
          | Total time                                  :        8.302 s           8.302 s
          | Fetch Density Variables time                :        0.000 s           0.000 s
  Integration grid: deviation in total charge (<rho> - N_e) =   1.136868E-12
  | <rho_up-rho_dn> = N_up-N_dn =     -0.0000; <|rho_up-rho_dn|> =      0.0000

  Self-consistency convergence accuracy:
  | Change of charge/spin density :  0.2991E+01  0.2500E-12
  | Change of unmixed KS charge/spin density :  0.2880E+03  0.2500E-12
  | Change of sum of eigenvalues  : -0.4225E+03 eV
  | Change of total energy        :  0.6428E+02 eV


------------------------------------------------------------
  End self-consistency iteration #     1       :  max(cpu_time)    wall_clock(cpu1)
  | Time for this iteration                     :       62.503 s          62.505 s
  | Charge density update                       :        8.303 s           8.304 s
  | Density mixing & preconditioning            :        3.489 s           3.490 s
  | Hartree multipole update                    :        0.033 s           0.033 s
  | Hartree multipole summation                 :        0.599 s           0.599 s
  | Integration                                 :        3.772 s           3.772 s
  | Solution of K.-S. eqns.                     :       46.287 s          46.298 s
  | Total energy evaluation                     :        0.001 s           0.000 s

  Partial memory accounting:
  | Current value for overall tracked memory usage:
  |   Minimum:       91.187 MB (on task  80)
  |   Maximum:      145.891 MB (on task   6)
  |   Average:       93.795 MB
  | Peak value for overall tracked memory usage:
  |   Minimum:      157.416 MB (on task  90 after allocating kdm)
  |   Maximum:      390.706 MB (on task   6 after allocating eval_tmp)
  |   Average:      169.260 MB
  | Largest tracked array allocation so far:
  |   Minimum:       54.391 MB (kdm_complex on task   0)
  |   Maximum:       54.621 MB (KS_eigenvector_complex on task   1)
  |   Average:       54.401 MB
  Note:  These values currently only include a subset of arrays which are explicitly tracked.
  The "true" memory usage will be greater.
------------------------------------------------------------

------------------------------------------------------------
          Begin self-consistency iteration #    2

  Date     :  20241004, Time     :  140108.428
------------------------------------------------------------
  Pulay mixing of updated and previous charge densities.
  Diagnostic output of the density mixing factors determined by the Pulay scheme:
  | Note that these factors are applied to density residuals, i.e., to density differences that are normalized to zero.
  | Iteration         Mixing factor
  | N minus   1       0.443585E+01
  Available memory per node after mixing [GB]:    938.92
  Renormalizing the density to the exact electron count on the 3D integration grid.
