------------------------------------------------------------
          Invoking FHI-aims ...

          When using FHI-aims, please cite the following reference:

            Volker Blum, Ralf Gehrke, Felix Hanke, Paula Havu,
            Ville Havu, Xinguo Ren, Karsten Reuter, and Matthias Scheffler,
            'Ab Initio Molecular Simulations with Numeric Atom-Centered Orbitals',
            Computer Physics Communications 180, 2175-2196 (2009)

          In addition, many other developments in FHI-aims are likely important for
          your particular application. If so, please cite them. A partial list of references
          is written at the end of this file. Thank you for giving credit to the authors
          of these developments.

          For general information about FHI-aims please find us at

            https://fhi-aims.org

          Online tutorials can be found at

            https://fhi-aims-club.gitlab.io/tutorials/tutorials-overview/

          For any questions about FHI-aims, please visit our slack channel at

            https://fhi-aims.slack.com

          and our main development and support site at

            https://aims-git.rz-berlin.mpg.de .

          The latter site, in particular, has a wiki to collect information, as well
          as an issue tracker to log discussions, suggest improvements, and report issues
          or bugs. https://aims-git.rz-berlin.mpg.de is also the main development site
          of the project and all new and updated code versions can be obtained there.
          Please send an email to aims-coordinators@fhi-berlin.mpg.de and we will add
          you to these sites. They are for you and everyone is welcome there.

------------------------------------------------------------



  Date     :  20241006, Time     :  151809.796
  Time zero on CPU 1             :   0.347975000000000E+00  s.
  Internal wall clock time zero  :           497459889.796  s.

  FHI-aims created a unique identifier for this run for later identification
  aims_uuid : EC2A8A77-AFA8-4097-AEE9-E7F639B73DAC

  Build configuration of the current instance of FHI-aims
  -------------------------------------------------------
  FHI-aims version      : 240605
  Commit number         : b001b2e18
  CMake host system     : Linux-6.5.0-41-generic
  CMake version         : 3.22.1
  Fortran compiler      : /opt/intel/oneapi/mpi/2021.12/bin/mpiifort (IntelLLVM) version 2024.1.0
  Fortran compiler flags: -fc=ifx -O3 -ip -fp-model precise
  C compiler            : /opt/intel/oneapi/mpi/2021.12/bin/mpiicc (IntelLLVM) version 2024.1.0
  C compiler flags      : -cc=icx -O3 -ip -fp-model precise -std=gnu99
  C++ compiler          : /opt/intel/oneapi/mpi/2021.12/bin/mpiicpc (IntelLLVM) version 2024.1.0
  C++ compiler flags    : -cxx=icpx -O3 -ip -fp-model precise -std=c++11
  HIP compiler          :
  HIP compiler flags    :
  HIP GPU arch          :
  Using MPI
  Using ScaLAPACK
  Using LibXC
  Using i-PI
  Using RLSY
  Linking against: /opt/intel/oneapi/mkl/2024.1/lib/intel64/libmkl_intel_lp64.so
                   /opt/intel/oneapi/mkl/2024.1/lib/intel64/libmkl_sequential.so
                   /opt/intel/oneapi/mkl/2024.1/lib/intel64/libmkl_core.so
                   /opt/intel/oneapi/mkl/2024.1/lib/intel64/libmkl_blacs_intelmpi_lp64.so
                   /opt/intel/oneapi/mkl/2024.1/lib/intel64/libmkl_scalapack_lp64.so
                   /opt/intel/oneapi/mkl/2024.1/lib/intel64/libmkl_core.so

  Using       32 parallel tasks.
  Task        0 on host RSL-arvutus reporting.
  Task        1 on host RSL-arvutus reporting.
  Task        2 on host RSL-arvutus reporting.
  Task        3 on host RSL-arvutus reporting.
  Task        4 on host RSL-arvutus reporting.
  Task        5 on host RSL-arvutus reporting.
  Task        6 on host RSL-arvutus reporting.
  Task        7 on host RSL-arvutus reporting.
  Task        8 on host RSL-arvutus reporting.
  Task        9 on host RSL-arvutus reporting.
  Task       10 on host RSL-arvutus reporting.
  Task       11 on host RSL-arvutus reporting.
  Task       12 on host RSL-arvutus reporting.
  Task       13 on host RSL-arvutus reporting.
  Task       14 on host RSL-arvutus reporting.
  Task       15 on host RSL-arvutus reporting.
  Task       16 on host RSL-arvutus reporting.
  Task       17 on host RSL-arvutus reporting.
  Task       18 on host RSL-arvutus reporting.
  Task       19 on host RSL-arvutus reporting.
  Task       20 on host RSL-arvutus reporting.
  Task       21 on host RSL-arvutus reporting.
  Task       22 on host RSL-arvutus reporting.
  Task       23 on host RSL-arvutus reporting.
  Task       24 on host RSL-arvutus reporting.
  Task       25 on host RSL-arvutus reporting.
  Task       26 on host RSL-arvutus reporting.
  Task       27 on host RSL-arvutus reporting.
  Task       28 on host RSL-arvutus reporting.
  Task       29 on host RSL-arvutus reporting.
  Task       30 on host RSL-arvutus reporting.
  Task       31 on host RSL-arvutus reporting.

  Memory overcommitment is allowed on your operating system.

  Obtaining array dimensions for all initial allocations:
  
  -----------------------------------------------------------------------
  Parsing control.in (first pass over file, find array dimensions only).
  The contents of control.in will be repeated verbatim below
  unless switched off by setting 'verbatim_writeout .false.' .
  in the first line of control.in .
  -----------------------------------------------------------------------
  
    xc              pbe
    relativistic    atomic_zora scalar
    k_grid          1 3 1
  
    charge	  1.0
    output          Mulliken
  
  
  ################################################################################
  #
  #  FHI-aims code project
  #  VB, Fritz-Haber Institut, 2009
  #
  #  Suggested "light" defaults for Ti atom (to be pasted into control.in file)
  #  Be sure to double-check any results obtained with these settings for post-processing,
  #  e.g., with the "tight" defaults and larger basis sets.
  #
  ################################################################################
    species        Ti
  #     global species definitions
      nucleus             22
      mass                47.867
  #
      l_hartree           4
  #
      cut_pot             3.5          1.5  1.0
      basis_dep_cutoff    1e-4
  #
      radial_base         48 5.0
      radial_multiplier   1
      angular_grids       specified
        division   0.5171   50
        division   0.9824  110
        division   1.2917  194
        division   1.4940  302
  #      division   1.6934  434
  #      division   1.8425  590
  #      division   2.1901  770
  #      division   2.2896  974
  #      division   2.8244 1202
  #      outer_grid  974
        outer_grid  302
  ################################################################################
  #
  #  Definition of "minimal" basis
  #
  ################################################################################
  #     valence basis states
      valence      4  s   2.
      valence      3  p   6.
      valence      3  d   2.
  #     ion occupancy
      ion_occ      4  s   1.
      ion_occ      3  p   6.
      ion_occ      3  d   1.
  ################################################################################
  #
  #  Suggested additional basis functions. For production calculations,
  #  uncomment them one after another (the most important basis functions are
  #  listed first).
  #
  #  Constructed for dimers: 1.6 A, 1.85 A, 2.5 A, 3.25 A, 4.25 A
  #
  ################################################################################
  #  "First tier" - improvements: -396.25 meV to -19.41 meV
       hydro 4 f 8
       hydro 3 d 2.7
       ionic 4 p auto
  #     hydro 5 g 11.6
       ionic 4 s auto
  #  "Second tier" - improvements: -16.30 meV to -2.03 meV
  #     hydro 3 d 4.4
  #     hydro 6 h 16
  #     hydro 4 f 9.4
  #     hydro 4 p 4.5
  #     hydro 1 s 0.5
  #  "Third tier" - improvements: -6.28 meV to -0.37 meV
  #     hydro 4 d 6.4
  #     hydro 4 f 10
  #     hydro 5 g 12
  #     hydro 2 p 1.7
  #     hydro 6 h 16.4
  #     hydro 4 s 3.8
  #  Further basis functions: -0.45 meV and smaller improvements
  #     hydro 3 d 8.8
  #     hydro 5 p 18
  #     hydro 4 f 22.4
  #     hydro 5 f 7.2  # -0.16 meV
  #     hydro 3 d 2.1  # -0.11 meV
  #     hydro 5 g 7.4  # -0.09 meV
  
  
  ################################################################################
  #
  #  FHI-aims code project
  #  VB, Fritz-Haber Institut, 2009
  #
  #  Suggested "light" defaults for O atom (to be pasted into control.in file)
  #  Be sure to double-check any results obtained with these settings for post-processing,
  #  e.g., with the "tight" defaults and larger basis sets.
  #
  ################################################################################
    species        O
  #     global species definitions
      nucleus             8
      mass                15.9994
  #
      l_hartree           4
  #
      cut_pot             3.5  1.5  1.0
      basis_dep_cutoff    1e-4
  #
      radial_base         36 5.0
      radial_multiplier   1
       angular_grids specified
        division   0.2659   50
        division   0.4451  110
        division   0.6052  194
        division   0.7543  302
  #      division   0.8014  434
  #      division   0.8507  590
  #      division   0.8762  770
  #      division   0.9023  974
  #      division   1.2339 1202
  #      outer_grid 974
        outer_grid 302
  ################################################################################
  #
  #  Definition of "minimal" basis
  #
  ################################################################################
  #     valence basis states
      valence      2  s   2.
      valence      2  p   4.
  #     ion occupancy
      ion_occ      2  s   1.
      ion_occ      2  p   3.
  ################################################################################
  #
  #  Suggested additional basis functions. For production calculations,
  #  uncomment them one after another (the most important basis functions are
  #  listed first).
  #
  #  Constructed for dimers: 1.0 A, 1.208 A, 1.5 A, 2.0 A, 3.0 A
  #
  ################################################################################
  #  "First tier" - improvements: -699.05 meV to -159.38 meV
       hydro 2 p 1.8
       hydro 3 d 7.6
       hydro 3 s 6.4
  #  "Second tier" - improvements: -49.91 meV to -5.39 meV
  #     hydro 4 f 11.6
  #     hydro 3 p 6.2
  #     hydro 3 d 5.6
  #     hydro 5 g 17.6
  #     hydro 1 s 0.75
  #  "Third tier" - improvements: -2.83 meV to -0.50 meV
  #     ionic 2 p auto
  #     hydro 4 f 10.8
  #     hydro 4 d 4.7
  #     hydro 2 s 6.8
  #  "Fourth tier" - improvements: -0.40 meV to -0.12 meV
  #     hydro 3 p 5
  #     hydro 3 s 3.3
  #     hydro 5 g 15.6
  #     hydro 4 f 17.6
  #     hydro 4 d 14
  # Further basis functions - -0.08 meV and below
  #     hydro 3 s 2.1
  #     hydro 4 d 11.6
  #     hydro 3 p 16
  #     hydro 2 s 17.2
  ################################################################################
  #
  #  FHI-aims code project
  #  VB, Fritz-Haber Institut, 2009
  #
  #  Suggested "light" defaults for F atom (to be pasted into control.in file)
  #  Be sure to double-check any results obtained with these settings for post-processing,
  #  e.g., with the "tight" defaults and larger basis sets.
  #
  ################################################################################
    species        F
  #     global species definitions
      nucleus             9
      mass                18.9984032
  #
      l_hartree           4
  #
      cut_pot             3.5  1.5  1.0
      basis_dep_cutoff    1e-4
  #
      radial_base         37 5.0
      radial_multiplier   1
      angular_grids specified
        division   0.4014  110
        division   0.5291  194
        division   0.6019  302
  #      division   0.6814  434
  #      division   0.7989  590
  #      division   0.8965  770
  #      division   1.3427  974
  #      outer_grid   974
        outer_grid   302
  ################################################################################
  #
  #  Definition of "minimal" basis
  #
  ################################################################################
  #     valence basis states
      valence      2  s   2.
      valence      2  p   5.
  #     ion occupancy
      ion_occ      2  s   1.
      ion_occ      2  p   4.
  ################################################################################
  #
  #  Suggested additional basis functions. For production calculations,
  #  uncomment them one after another (the most important basis functions are
  #  listed first).
  #
  #  Constructed for dimers: 1.2 A, 1.418 A, 1.75 A, 2.25 A, 3.25 A
  #
  ################################################################################
  #  "First tier" - improvements: -149.44 meV to -45.88 meV
       hydro 2 p 1.7
       hydro 3 d 7.4
       hydro 3 s 6.8
  #  "Second tier" - improvements: -12.96 meV to -1.56 meV
  #     hydro 4 f 11.2
  #     ionic 2 p auto
  #     hydro 1 s 0.75
  #     hydro 4 d 8.8
  #     hydro 5 g 16.8
  #  "Third tier" - improvements: -0.58 meV to -0.05 meV
  #     hydro 3 p 6.2
  #     hydro 3 s 3.2
  #     hydro 4 f 9.6
  #     hydro 3 s 19.6
  #     hydro 4 d 8.6
  #     hydro 5 g 14.4
  # Further basis functions: -0.05 meV and below
  #     hydro 3 p 4.2
  
  -----------------------------------------------------------------------
  Completed first pass over input file control.in .
  -----------------------------------------------------------------------
  
  
  -----------------------------------------------------------------------
  Parsing geometry.in (first pass over file, find array dimensions only).
  The contents of geometry.in will be repeated verbatim below
  unless switched off by setting 'verbatim_writeout .false.' .
  in the first line of geometry.in .
  -----------------------------------------------------------------------
  
  lattice_vector 19.698380 0.000000 0.000000
  lattice_vector 0.000000 8.918648 0.000000
  lattice_vector 0.000000 0.000000 63.422645
  
  atom 19.698379 0.000000 22.500000 Ti
  atom 3.283063 1.486441 22.500000 Ti
  atom 1.276729 1.486441 22.500029 F
  atom 3.283086 0.000000 23.776767 O
  atom 6.566086 0.000000 24.506468 O
  atom 2.006317 1.486441 25.783206 O
  atom 3.283046 0.000000 25.783235 Ti
  atom 6.566109 1.486441 25.783235 Ti
  atom 4.559775 1.486441 25.783265 O
  atom 0.000005 0.000000 27.060002 O
  atom 3.283006 0.000000 27.789704 O
  atom 5.289362 1.486441 29.066441 O
  atom 6.566091 0.000000 29.066471 Ti
  atom 3.283028 1.486441 29.066471 Ti
  atom 1.276694 1.486441 29.066500 O
  atom 3.283051 0.000000 30.343237 O
  atom 6.566051 0.000000 31.072939 O
  atom 2.006281 1.486441 32.349676 O
  atom 3.283010 0.000000 32.349706 Ti
  atom 6.566074 1.486441 32.349706 Ti
  atom 4.559740 1.486441 32.349735 O
  atom 6.566096 0.000000 33.626473 O
  atom 3.282970 0.000000 34.356174 O
  atom 5.289327 1.486441 35.632912 O
  atom 6.566056 0.000000 35.632941 Ti
  atom 3.282993 1.486441 35.632941 Ti
  atom 1.276659 1.486441 35.632970 O
  atom 3.283015 0.000000 36.909708 O
  atom 6.566016 0.000000 37.639409 O
  atom 2.006246 1.486441 38.916147 O
  atom 3.282975 0.000000 38.916176 Ti
  atom 6.566039 1.486441 38.916176 Ti
  atom 4.559704 1.486441 38.916206 O
  atom 6.566061 0.000000 40.192943 O
  atom 3.282935 0.000000 40.922645 O
  atom 19.698379 2.972883 22.500000 Ti
  atom 3.283063 4.459324 22.500000 Ti
  atom 1.276729 4.459324 22.500029 O
  atom 3.283086 2.972883 23.776767 O
  atom 6.566086 2.972883 24.506468 O
  atom 2.006317 4.459324 25.783206 O
  atom 3.283046 2.972883 25.783235 Ti
  atom 6.566109 4.459324 25.783235 Ti
  atom 4.559775 4.459324 25.783265 O
  atom 0.000005 2.972883 27.060002 O
  atom 3.283006 2.972883 27.789704 O
  atom 5.289362 4.459324 29.066441 O
  atom 6.566091 2.972883 29.066471 Ti
  atom 3.283028 4.459324 29.066471 Ti
  atom 1.276694 4.459324 29.066500 O
  atom 3.283051 2.972883 30.343237 O
  atom 6.566051 2.972883 31.072939 O
  atom 2.006281 4.459324 32.349676 O
  atom 3.283010 2.972883 32.349706 Ti
  atom 6.566074 4.459324 32.349706 Ti
  atom 4.559740 4.459324 32.349735 O
  atom 6.566096 2.972883 33.626473 O
  atom 3.282970 2.972883 34.356174 O
  atom 5.289327 4.459324 35.632912 O
  atom 6.566056 2.972883 35.632941 Ti
  atom 3.282993 4.459324 35.632941 Ti
  atom 1.276659 4.459324 35.632970 O
  atom 3.283015 2.972883 36.909708 O
  atom 6.566016 2.972883 37.639409 O
  atom 2.006246 4.459324 38.916147 O
  atom 3.282975 2.972883 38.916176 Ti
  atom 6.566039 4.459324 38.916176 Ti
  atom 4.559704 4.459324 38.916206 O
  atom 6.566061 2.972883 40.192943 O
  atom 3.282935 2.972883 40.922645 O
  atom 19.698379 5.945765 22.500000 Ti
  atom 3.283063 7.432207 22.500000 Ti
  atom 1.276729 7.432207 22.500029 O
  atom 3.283086 5.945765 23.776767 O
  atom 6.566086 5.945765 24.506468 O
  atom 2.006317 7.432207 25.783206 O
  atom 3.283046 5.945765 25.783235 Ti
  atom 6.566109 7.432207 25.783235 Ti
  atom 4.559775 7.432207 25.783265 O
  atom 0.000005 5.945765 27.060002 O
  atom 3.283006 5.945765 27.789704 O
  atom 5.289362 7.432207 29.066441 O
  atom 6.566091 5.945765 29.066471 Ti
  atom 3.283028 7.432207 29.066471 Ti
  atom 1.276694 7.432207 29.066500 O
  atom 3.283051 5.945765 30.343237 O
  atom 6.566051 5.945765 31.072939 O
  atom 2.006281 7.432207 32.349676 O
  atom 3.283010 5.945765 32.349706 Ti
  atom 6.566074 7.432207 32.349706 Ti
  atom 4.559740 7.432207 32.349735 O
  atom 6.566096 5.945765 33.626473 O
  atom 3.282970 5.945765 34.356174 O
  atom 5.289327 7.432207 35.632912 O
  atom 6.566056 5.945765 35.632941 Ti
  atom 3.282993 7.432207 35.632941 Ti
  atom 1.276659 7.432207 35.632970 O
  atom 3.283015 5.945765 36.909708 O
  atom 6.566016 5.945765 37.639409 O
  atom 2.006246 7.432207 38.916147 O
  atom 3.282975 5.945765 38.916176 Ti
  atom 6.566039 7.432207 38.916176 Ti
  atom 4.559704 7.432207 38.916206 O
  atom 6.566061 5.945765 40.192943 O
  atom 3.282935 5.945765 40.922645 O
  atom 6.566126 0.000000 22.500000 Ti
  atom 9.849190 1.486441 22.500000 Ti
  atom 7.842856 1.486441 22.500029 O
  atom 9.849212 0.000000 23.776767 O
  atom 13.132213 0.000000 24.506468 O
  atom 8.572443 1.486441 25.783206 O
  atom 9.849172 0.000000 25.783235 Ti
  atom 13.132235 1.486441 25.783235 Ti
  atom 11.125901 1.486441 25.783265 O
  atom 6.566131 0.000000 27.060002 O
  atom 9.849132 0.000000 27.789704 O
  atom 11.855489 1.486441 29.066441 O
  atom 13.132218 0.000000 29.066471 Ti
  atom 9.849155 1.486441 29.066471 Ti
  atom 7.842820 1.486441 29.066500 O
  atom 9.849177 0.000000 30.343237 O
  atom 13.132178 0.000000 31.072939 O
  atom 8.572408 1.486441 32.349676 O
  atom 9.849137 0.000000 32.349706 Ti
  atom 13.132200 1.486441 32.349706 Ti
  atom 11.125866 1.486441 32.349735 O
  atom 13.132223 0.000000 33.626473 O
  atom 9.849097 0.000000 34.356174 O
  atom 11.855454 1.486441 35.632912 O
  atom 13.132183 0.000000 35.632941 Ti
  atom 9.849119 1.486441 35.632941 Ti
  atom 7.842785 1.486441 35.632970 O
  atom 9.849142 0.000000 36.909708 O
  atom 13.132143 0.000000 37.639409 O
  atom 8.572373 1.486441 38.916147 O
  atom 9.849102 0.000000 38.916176 Ti
  atom 13.132165 1.486441 38.916176 Ti
  atom 11.125831 1.486441 38.916206 O
  atom 13.132188 0.000000 40.192943 O
  atom 9.849062 0.000000 40.922645 O
  atom 6.566126 2.972883 22.500000 Ti
  atom 9.849190 4.459324 22.500000 Ti
  atom 7.842856 4.459324 22.500029 O
  atom 9.849212 2.972883 23.776767 O
  atom 13.132213 2.972883 24.506468 O
  atom 8.572443 4.459324 25.783206 O
  atom 9.849172 2.972883 25.783235 Ti
  atom 13.132235 4.459324 25.783235 Ti
  atom 11.125901 4.459324 25.783265 O
  atom 6.566131 2.972883 27.060002 O
  atom 9.849132 2.972883 27.789704 O
  atom 11.855489 4.459324 29.066441 O
  atom 13.132218 2.972883 29.066471 Ti
  atom 9.849155 4.459324 29.066471 Ti
  atom 7.842820 4.459324 29.066500 O
  atom 9.849177 2.972883 30.343237 O
  atom 13.132178 2.972883 31.072939 O
  atom 8.572408 4.459324 32.349676 O
  atom 9.849137 2.972883 32.349706 Ti
  atom 13.132200 4.459324 32.349706 Ti
  atom 11.125866 4.459324 32.349735 O
  atom 13.132223 2.972883 33.626473 O
  atom 9.849097 2.972883 34.356174 O
  atom 11.855454 4.459324 35.632912 O
  atom 13.132183 2.972883 35.632941 Ti
  atom 9.849119 4.459324 35.632941 Ti
  atom 7.842785 4.459324 35.632970 O
  atom 9.849142 2.972883 36.909708 O
  atom 13.132143 2.972883 37.639409 O
  atom 8.572373 4.459324 38.916147 O
  atom 9.849102 2.972883 38.916176 Ti
  atom 13.132165 4.459324 38.916176 Ti
  atom 11.125831 4.459324 38.916206 O
  atom 13.132188 2.972883 40.192943 O
  atom 9.849062 2.972883 40.922645 O
  atom 6.566126 5.945765 22.500000 Ti
  atom 9.849190 7.432207 22.500000 Ti
  atom 7.842856 7.432207 22.500029 O
  atom 9.849212 5.945765 23.776767 O
  atom 13.132213 5.945765 24.506468 O
  atom 8.572443 7.432207 25.783206 O
  atom 9.849172 5.945765 25.783235 Ti
  atom 13.132235 7.432207 25.783235 Ti
  atom 11.125901 7.432207 25.783265 O
  atom 6.566131 5.945765 27.060002 O
  atom 9.849132 5.945765 27.789704 O
  atom 11.855489 7.432207 29.066441 O
  atom 13.132218 5.945765 29.066471 Ti
  atom 9.849155 7.432207 29.066471 Ti
  atom 7.842820 7.432207 29.066500 O
  atom 9.849177 5.945765 30.343237 O
  atom 13.132178 5.945765 31.072939 O
  atom 8.572408 7.432207 32.349676 O
  atom 9.849137 5.945765 32.349706 Ti
  atom 13.132200 7.432207 32.349706 Ti
  atom 11.125866 7.432207 32.349735 O
  atom 13.132223 5.945765 33.626473 O
  atom 9.849097 5.945765 34.356174 O
  atom 11.855454 7.432207 35.632912 O
  atom 13.132183 5.945765 35.632941 Ti
  atom 9.849119 7.432207 35.632941 Ti
  atom 7.842785 7.432207 35.632970 O
  atom 9.849142 5.945765 36.909708 O
  atom 13.132143 5.945765 37.639409 O
  atom 8.572373 7.432207 38.916147 O
  atom 9.849102 5.945765 38.916176 Ti
  atom 13.132165 7.432207 38.916176 Ti
  atom 11.125831 7.432207 38.916206 O
  atom 13.132188 5.945765 40.192943 O
  atom 9.849062 5.945765 40.922645 O
  atom 13.132253 0.000000 22.500000 Ti
  atom 16.415316 1.486441 22.500000 Ti
  atom 14.408982 1.486441 22.500029 O
  atom 16.415339 0.000000 23.776767 O
  atom 19.698339 0.000000 24.506468 O
  atom 15.138570 1.486441 25.783206 O
  atom 16.415299 0.000000 25.783235 Ti
  atom 19.698362 1.486441 25.783235 Ti
  atom 17.692028 1.486441 25.783265 O
  atom 13.132258 0.000000 27.060002 O
  atom 16.415259 0.000000 27.789704 O
  atom 18.421615 1.486441 29.066441 O
  atom 19.698344 0.000000 29.066471 Ti
  atom 16.415281 1.486441 29.066471 Ti
  atom 14.408947 1.486441 29.066500 O
  atom 16.415304 0.000000 30.343237 O
  atom 19.698304 0.000000 31.072939 O
  atom 15.138534 1.486441 32.349676 O
  atom 16.415263 0.000000 32.349706 Ti
  atom 19.698327 1.486441 32.349706 Ti
  atom 17.691993 1.486441 32.349735 O
  atom 19.698349 0.000000 33.626473 O
  atom 16.415223 0.000000 34.356174 O
  atom 18.421580 1.486441 35.632912 O
  atom 19.698309 0.000000 35.632941 Ti
  atom 16.415246 1.486441 35.632941 Ti
  atom 14.408912 1.486441 35.632970 O
  atom 16.415268 0.000000 36.909708 O
  atom 19.698269 0.000000 37.639409 O
  atom 15.138499 1.486441 38.916147 O
  atom 16.415228 0.000000 38.916176 Ti
  atom 19.698292 1.486441 38.916176 Ti
  atom 17.691957 1.486441 38.916206 O
  atom 19.698314 0.000000 40.192943 O
  atom 16.415188 0.000000 40.922645 O
  atom 13.132253 2.972883 22.500000 Ti
  atom 16.415316 4.459324 22.500000 Ti
  atom 14.408982 4.459324 22.500029 O
  atom 16.415339 2.972883 23.776767 O
  atom 19.698339 2.972883 24.506468 O
  atom 15.138570 4.459324 25.783206 O
  atom 16.415299 2.972883 25.783235 Ti
  atom 19.698362 4.459324 25.783235 Ti
  atom 17.692028 4.459324 25.783265 O
  atom 13.132258 2.972883 27.060002 O
  atom 16.415259 2.972883 27.789704 O
  atom 18.421615 4.459324 29.066441 O
  atom 19.698344 2.972883 29.066471 Ti
  atom 16.415281 4.459324 29.066471 Ti
  atom 14.408947 4.459324 29.066500 O
  atom 16.415304 2.972883 30.343237 O
  atom 19.698304 2.972883 31.072939 O
  atom 15.138534 4.459324 32.349676 O
  atom 16.415263 2.972883 32.349706 Ti
  atom 19.698327 4.459324 32.349706 Ti
  atom 17.691993 4.459324 32.349735 O
  atom 19.698349 2.972883 33.626473 O
  atom 16.415223 2.972883 34.356174 O
  atom 18.421580 4.459324 35.632912 O
  atom 19.698309 2.972883 35.632941 Ti
  atom 16.415246 4.459324 35.632941 Ti
  atom 14.408912 4.459324 35.632970 O
  atom 16.415268 2.972883 36.909708 O
  atom 19.698269 2.972883 37.639409 O
  atom 15.138499 4.459324 38.916147 O
  atom 16.415228 2.972883 38.916176 Ti
  atom 19.698292 4.459324 38.916176 Ti
  atom 17.691957 4.459324 38.916206 O
  atom 19.698314 2.972883 40.192943 O
  atom 16.415188 2.972883 40.922645 O
  atom 13.132253 5.945765 22.500000 Ti
  atom 16.415316 7.432207 22.500000 Ti
  atom 14.408982 7.432207 22.500029 O
  atom 16.415339 5.945765 23.776767 O
  atom 19.698339 5.945765 24.506468 O
  atom 15.138570 7.432207 25.783206 O
  atom 16.415299 5.945765 25.783235 Ti
  atom 19.698362 7.432207 25.783235 Ti
  atom 17.692028 7.432207 25.783265 O
  atom 13.132258 5.945765 27.060002 O
  atom 16.415259 5.945765 27.789704 O
  atom 18.421615 7.432207 29.066441 O
  atom 19.698344 5.945765 29.066471 Ti
  atom 16.415281 7.432207 29.066471 Ti
  atom 14.408947 7.432207 29.066500 O
  atom 16.415304 5.945765 30.343237 O
  atom 19.698304 5.945765 31.072939 O
  atom 15.138534 7.432207 32.349676 O
  atom 16.415263 5.945765 32.349706 Ti
  atom 19.698327 7.432207 32.349706 Ti
  atom 17.691993 7.432207 32.349735 O
  atom 19.698349 5.945765 33.626473 O
  atom 16.415223 5.945765 34.356174 O
  atom 18.421580 7.432207 35.632912 O
  atom 19.698309 5.945765 35.632941 Ti
  atom 16.415246 7.432207 35.632941 Ti
  atom 14.408912 7.432207 35.632970 O
  atom 16.415268 5.945765 36.909708 O
  atom 19.698269 5.945765 37.639409 O
  atom 15.138499 7.432207 38.916147 O
  atom 16.415228 5.945765 38.916176 Ti
  atom 19.698292 7.432207 38.916176 Ti
  atom 17.691957 7.432207 38.916206 O
  atom 19.698314 5.945765 40.192943 O
  atom 16.415188 5.945765 40.922645 O
  
  -----------------------------------------------------------------------
  Completed first pass over input file geometry.in .
  -----------------------------------------------------------------------
  

  Basic array size parameters:
  | Number of species                 :        3
  | Number of atoms                   :      315
  | Number of lattice vectors         :        3
  | Max. basis fn. angular momentum   :        3
  | Max. atomic/ionic basis occupied n:        4
  | Max. number of basis fn. types    :        3
  | Max. radial fns per species/type  :        7
  | Max. logarithmic grid size        :     1383
  | Max. radial integration grid size :       48
  | Max. angular integration grid size:      302
  | Max. angular grid division number :        8
  | Radial grid for Hartree potential :     1383
  | Number of spin channels           :        1

------------------------------------------------------------
          Reading file control.in.
------------------------------------------------------------
  XC: Using PBE gradient-corrected functionals.
  Scalar relativistic treatment of kinetic energy: on-site free-atom approximation to ZORA.
  Found k-point grid:         1         3         1
  Charged system requested: Charge =   0.100000E+01.
  Mulliken charge analysis will be performed and summarised to the main output.
  Full Mulliken charge analysis will be written to file 'Mulliken.out'.
 
  Reading configuration options for species Ti                  .
  | Found nuclear charge :  22.0000
  | Found atomic mass :    47.8670000000000      amu
  | Found l_max for Hartree potential  :   4
  | Found cutoff potl. onset [A], width [A], scale factor :    3.50000    1.50000    1.00000
  | Threshold for basis-dependent cutoff potential is   0.100000E-03
  | Found data for basic radial integration grid :    48 points, outermost radius =    5.000 A
  | Found multiplier for basic radial grid :   1
  | Found angular grid specification: user-specified.
  | Specified grid contains     5 separate shells.
  | Check grid settings after all constraints further below.
  | Found free-atom valence shell :  4 s   2.000
  | Found free-atom valence shell :  3 p   6.000
  | Found free-atom valence shell :  3 d   2.000
  | Found free-ion valence shell :  4 s   1.000
  | Found free-ion valence shell :  3 p   6.000
  | Found free-ion valence shell :  3 d   1.000
  | Found hydrogenic basis function :  4 f   8.000
  | Found hydrogenic basis function :  3 d   2.700
  | Found ionic basis function :  4 p , default cutoff radius.
  | Found ionic basis function :  4 s , default cutoff radius.
 | Encountered keyword species, ending the description of species Ti                  .
  Species Ti                  : Missing cutoff potential type.
  Defaulting to exp(1/x)/(1-x)^2 type cutoff potential.
  Species Ti: No 'logarithmic' tag. Using default grid for free atom:
  | Default logarithmic grid data [bohr] : 0.1000E-03 0.1000E+03 0.1012E+01
  | Will include ionic basis functions of  2.0-fold positive Ti                   ion.
  Species Ti: On-site basis accuracy parameter (for Gram-Schmidt orthonormalisation) not specified.
  Using default value basis_acc =  0.1000000E-03.
  Species Ti                  : Using default innermost maximum threshold i_radial=  2 for radial functions.
  Species Ti                  : Default cutoff onset for free atom density etc. : 0.35000000E+01 AA.
  Species Ti                  : Basic radial grid will be enhanced according to radial_multiplier =   1, to contain    48 grid points.
 
  Reading configuration options for species O                   .
  | Found nuclear charge :   8.0000
  | Found atomic mass :    15.9994000000000      amu
  | Found l_max for Hartree potential  :   4
  | Found cutoff potl. onset [A], width [A], scale factor :    3.50000    1.50000    1.00000
  | Threshold for basis-dependent cutoff potential is   0.100000E-03
  | Found data for basic radial integration grid :    36 points, outermost radius =    5.000 A
  | Found multiplier for basic radial grid :   1
  | Found angular grid specification: user-specified.
  | Specified grid contains     5 separate shells.
  | Check grid settings after all constraints further below.
  | Found free-atom valence shell :  2 s   2.000
  | Found free-atom valence shell :  2 p   4.000
  | Found free-ion valence shell :  2 s   1.000
  | Found free-ion valence shell :  2 p   3.000
  | Found hydrogenic basis function :  2 p   1.800
  | Found hydrogenic basis function :  3 d   7.600
  | Found hydrogenic basis function :  3 s   6.400
 | Encountered keyword species, ending the description of species O                   .
  Species O                   : Missing cutoff potential type.
  Defaulting to exp(1/x)/(1-x)^2 type cutoff potential.
  Species O : No 'logarithmic' tag. Using default grid for free atom:
  | Default logarithmic grid data [bohr] : 0.1000E-03 0.1000E+03 0.1012E+01
  Species O : On-site basis accuracy parameter (for Gram-Schmidt orthonormalisation) not specified.
  Using default value basis_acc =  0.1000000E-03.
  Species O                   : Using default innermost maximum threshold i_radial=  2 for radial functions.
  Species O                   : Default cutoff onset for free atom density etc. : 0.35000000E+01 AA.
  Species O                   : Basic radial grid will be enhanced according to radial_multiplier =   1, to contain    36 grid points.
 
  Reading configuration options for species F                   .
  | Found nuclear charge :   9.0000
  | Found atomic mass :    18.9984032000000      amu
  | Found l_max for Hartree potential  :   4
  | Found cutoff potl. onset [A], width [A], scale factor :    3.50000    1.50000    1.00000
  | Threshold for basis-dependent cutoff potential is   0.100000E-03
  | Found data for basic radial integration grid :    37 points, outermost radius =    5.000 A
  | Found multiplier for basic radial grid :   1
  | Found angular grid specification: user-specified.
  | Specified grid contains     4 separate shells.
  | Check grid settings after all constraints further below.
  | Found free-atom valence shell :  2 s   2.000
  | Found free-atom valence shell :  2 p   5.000
  | Found free-ion valence shell :  2 s   1.000
  | Found free-ion valence shell :  2 p   4.000
  | Found hydrogenic basis function :  2 p   1.700
  | Found hydrogenic basis function :  3 d   7.400
  | Found hydrogenic basis function :  3 s   6.800
  Species F                   : Missing cutoff potential type.
  Defaulting to exp(1/x)/(1-x)^2 type cutoff potential.
  Species F : No 'logarithmic' tag. Using default grid for free atom:
  | Default logarithmic grid data [bohr] : 0.1000E-03 0.1000E+03 0.1012E+01
  Species F : On-site basis accuracy parameter (for Gram-Schmidt orthonormalisation) not specified.
  Using default value basis_acc =  0.1000000E-03.
  Species F                   : Using default innermost maximum threshold i_radial=  2 for radial functions.
  Species F                   : Default cutoff onset for free atom density etc. : 0.35000000E+01 AA.
  Species F                   : Basic radial grid will be enhanced according to radial_multiplier =   1, to contain    37 grid points.
 
  Finished reading input file 'control.in'.
 
------------------------------------------------------------


------------------------------------------------------------
          Reading geometry description geometry.in.
------------------------------------------------------------
  | The smallest distance between any two atoms is         1.95947539 AA.
  | The first atom of this pair is atom number                    130 .
  | The second atom of this pair is atom number                   199 .
  | Wigner-Seitz cell of the first atom image           0     0     0 .
  | (The Wigner-Seitz cell of the second atom is 0 0 0  by definition.)

  Symmetry information by spglib:
  | Precision set to  0.1E-04
  | Number of Operations  : 2
  | Space group           : 6
  | International         : Pm      /op
  | Schoenflies           : Cs^1
  Input structure read successfully.
  The structure contains      315 atoms,  and a total of       4032.000 electrons.

  Input geometry:
  | Unit cell:
  |       19.69838000        0.00000000        0.00000000
  |        0.00000000        8.91864800        0.00000000
  |        0.00000000        0.00000000       63.42264500
  | Atomic structure:
  |       Atom                x [A]            y [A]            z [A]
  |    1: Species Ti           19.69837900        0.00000000       22.50000000
  |    2: Species Ti            3.28306300        1.48644100       22.50000000
  |    3: Species F             1.27672900        1.48644100       22.50002900
  |    4: Species O             3.28308600        0.00000000       23.77676700
  |    5: Species O             6.56608600        0.00000000       24.50646800
  |    6: Species O             2.00631700        1.48644100       25.78320600
  |    7: Species Ti            3.28304600        0.00000000       25.78323500
  |    8: Species Ti            6.56610900        1.48644100       25.78323500
  |    9: Species O             4.55977500        1.48644100       25.78326500
  |   10: Species O             0.00000500        0.00000000       27.06000200
  |   11: Species O             3.28300600        0.00000000       27.78970400
  |   12: Species O             5.28936200        1.48644100       29.06644100
  |   13: Species Ti            6.56609100        0.00000000       29.06647100
  |   14: Species Ti            3.28302800        1.48644100       29.06647100
  |   15: Species O             1.27669400        1.48644100       29.06650000
  |   16: Species O             3.28305100        0.00000000       30.34323700
  |   17: Species O             6.56605100        0.00000000       31.07293900
  |   18: Species O             2.00628100        1.48644100       32.34967600
  |   19: Species Ti            3.28301000        0.00000000       32.34970600
  |   20: Species Ti            6.56607400        1.48644100       32.34970600
  |   21: Species O             4.55974000        1.48644100       32.34973500
  |   22: Species O             6.56609600        0.00000000       33.62647300
  |   23: Species O             3.28297000        0.00000000       34.35617400
  |   24: Species O             5.28932700        1.48644100       35.63291200
  |   25: Species Ti            6.56605600        0.00000000       35.63294100
  |   26: Species Ti            3.28299300        1.48644100       35.63294100
  |   27: Species O             1.27665900        1.48644100       35.63297000
  |   28: Species O             3.28301500        0.00000000       36.90970800
  |   29: Species O             6.56601600        0.00000000       37.63940900
  |   30: Species O             2.00624600        1.48644100       38.91614700
  |   31: Species Ti            3.28297500        0.00000000       38.91617600
  |   32: Species Ti            6.56603900        1.48644100       38.91617600
  |   33: Species O             4.55970400        1.48644100       38.91620600
  |   34: Species O             6.56606100        0.00000000       40.19294300
  |   35: Species O             3.28293500        0.00000000       40.92264500
  |   36: Species Ti           19.69837900        2.97288300       22.50000000
  |   37: Species Ti            3.28306300        4.45932400       22.50000000
  |   38: Species O             1.27672900        4.45932400       22.50002900
  |   39: Species O             3.28308600        2.97288300       23.77676700
  |   40: Species O             6.56608600        2.97288300       24.50646800
  |   41: Species O             2.00631700        4.45932400       25.78320600
  |   42: Species Ti            3.28304600        2.97288300       25.78323500
  |   43: Species Ti            6.56610900        4.45932400       25.78323500
  |   44: Species O             4.55977500        4.45932400       25.78326500
  |   45: Species O             0.00000500        2.97288300       27.06000200
  |   46: Species O             3.28300600        2.97288300       27.78970400
  |   47: Species O             5.28936200        4.45932400       29.06644100
  |   48: Species Ti            6.56609100        2.97288300       29.06647100
  |   49: Species Ti            3.28302800        4.45932400       29.06647100
  |   50: Species O             1.27669400        4.45932400       29.06650000
  |   51: Species O             3.28305100        2.97288300       30.34323700
  |   52: Species O             6.56605100        2.97288300       31.07293900
  |   53: Species O             2.00628100        4.45932400       32.34967600
  |   54: Species Ti            3.28301000        2.97288300       32.34970600
  |   55: Species Ti            6.56607400        4.45932400       32.34970600
  |   56: Species O             4.55974000        4.45932400       32.34973500
  |   57: Species O             6.56609600        2.97288300       33.62647300
  |   58: Species O             3.28297000        2.97288300       34.35617400
  |   59: Species O             5.28932700        4.45932400       35.63291200
  |   60: Species Ti            6.56605600        2.97288300       35.63294100
  |   61: Species Ti            3.28299300        4.45932400       35.63294100
  |   62: Species O             1.27665900        4.45932400       35.63297000
  |   63: Species O             3.28301500        2.97288300       36.90970800
  |   64: Species O             6.56601600        2.97288300       37.63940900
  |   65: Species O             2.00624600        4.45932400       38.91614700
  |   66: Species Ti            3.28297500        2.97288300       38.91617600
  |   67: Species Ti            6.56603900        4.45932400       38.91617600
  |   68: Species O             4.55970400        4.45932400       38.91620600
  |   69: Species O             6.56606100        2.97288300       40.19294300
  |   70: Species O             3.28293500        2.97288300       40.92264500
  |   71: Species Ti           19.69837900        5.94576500       22.50000000
  |   72: Species Ti            3.28306300        7.43220700       22.50000000
  |   73: Species O             1.27672900        7.43220700       22.50002900
  |   74: Species O             3.28308600        5.94576500       23.77676700
  |   75: Species O             6.56608600        5.94576500       24.50646800
  |   76: Species O             2.00631700        7.43220700       25.78320600
  |   77: Species Ti            3.28304600        5.94576500       25.78323500
  |   78: Species Ti            6.56610900        7.43220700       25.78323500
  |   79: Species O             4.55977500        7.43220700       25.78326500
  |   80: Species O             0.00000500        5.94576500       27.06000200
  |   81: Species O             3.28300600        5.94576500       27.78970400
  |   82: Species O             5.28936200        7.43220700       29.06644100
  |   83: Species Ti            6.56609100        5.94576500       29.06647100
  |   84: Species Ti            3.28302800        7.43220700       29.06647100
  |   85: Species O             1.27669400        7.43220700       29.06650000
  |   86: Species O             3.28305100        5.94576500       30.34323700
  |   87: Species O             6.56605100        5.94576500       31.07293900
  |   88: Species O             2.00628100        7.43220700       32.34967600
  |   89: Species Ti            3.28301000        5.94576500       32.34970600
  |   90: Species Ti            6.56607400        7.43220700       32.34970600
  |   91: Species O             4.55974000        7.43220700       32.34973500
  |   92: Species O             6.56609600        5.94576500       33.62647300
  |   93: Species O             3.28297000        5.94576500       34.35617400
  |   94: Species O             5.28932700        7.43220700       35.63291200
  |   95: Species Ti            6.56605600        5.94576500       35.63294100
  |   96: Species Ti            3.28299300        7.43220700       35.63294100
  |   97: Species O             1.27665900        7.43220700       35.63297000
  |   98: Species O             3.28301500        5.94576500       36.90970800
  |   99: Species O             6.56601600        5.94576500       37.63940900
  |  100: Species O             2.00624600        7.43220700       38.91614700
  |  101: Species Ti            3.28297500        5.94576500       38.91617600
  |  102: Species Ti            6.56603900        7.43220700       38.91617600
  |  103: Species O             4.55970400        7.43220700       38.91620600
  |  104: Species O             6.56606100        5.94576500       40.19294300
  |  105: Species O             3.28293500        5.94576500       40.92264500
  |  106: Species Ti            6.56612600        0.00000000       22.50000000
  |  107: Species Ti            9.84919000        1.48644100       22.50000000
  |  108: Species O             7.84285600        1.48644100       22.50002900
  |  109: Species O             9.84921200        0.00000000       23.77676700
  |  110: Species O            13.13221300        0.00000000       24.50646800
  |  111: Species O             8.57244300        1.48644100       25.78320600
  |  112: Species Ti            9.84917200        0.00000000       25.78323500
  |  113: Species Ti           13.13223500        1.48644100       25.78323500
  |  114: Species O            11.12590100        1.48644100       25.78326500
  |  115: Species O             6.56613100        0.00000000       27.06000200
  |  116: Species O             9.84913200        0.00000000       27.78970400
  |  117: Species O            11.85548900        1.48644100       29.06644100
  |  118: Species Ti           13.13221800        0.00000000       29.06647100
  |  119: Species Ti            9.84915500        1.48644100       29.06647100
  |  120: Species O             7.84282000        1.48644100       29.06650000
  |  121: Species O             9.84917700        0.00000000       30.34323700
  |  122: Species O            13.13217800        0.00000000       31.07293900
  |  123: Species O             8.57240800        1.48644100       32.34967600
  |  124: Species Ti            9.84913700        0.00000000       32.34970600
  |  125: Species Ti           13.13220000        1.48644100       32.34970600
  |  126: Species O            11.12586600        1.48644100       32.34973500
  |  127: Species O            13.13222300        0.00000000       33.62647300
  |  128: Species O             9.84909700        0.00000000       34.35617400
  |  129: Species O            11.85545400        1.48644100       35.63291200
  |  130: Species Ti           13.13218300        0.00000000       35.63294100
  |  131: Species Ti            9.84911900        1.48644100       35.63294100
  |  132: Species O             7.84278500        1.48644100       35.63297000
  |  133: Species O             9.84914200        0.00000000       36.90970800
  |  134: Species O            13.13214300        0.00000000       37.63940900
  |  135: Species O             8.57237300        1.48644100       38.91614700
  |  136: Species Ti            9.84910200        0.00000000       38.91617600
  |  137: Species Ti           13.13216500        1.48644100       38.91617600
  |  138: Species O            11.12583100        1.48644100       38.91620600
  |  139: Species O            13.13218800        0.00000000       40.19294300
  |  140: Species O             9.84906200        0.00000000       40.92264500
  |  141: Species Ti            6.56612600        2.97288300       22.50000000
  |  142: Species Ti            9.84919000        4.45932400       22.50000000
  |  143: Species O             7.84285600        4.45932400       22.50002900
  |  144: Species O             9.84921200        2.97288300       23.77676700
  |  145: Species O            13.13221300        2.97288300       24.50646800
  |  146: Species O             8.57244300        4.45932400       25.78320600
  |  147: Species Ti            9.84917200        2.97288300       25.78323500
  |  148: Species Ti           13.13223500        4.45932400       25.78323500
  |  149: Species O            11.12590100        4.45932400       25.78326500
  |  150: Species O             6.56613100        2.97288300       27.06000200
  |  151: Species O             9.84913200        2.97288300       27.78970400
  |  152: Species O            11.85548900        4.45932400       29.06644100
  |  153: Species Ti           13.13221800        2.97288300       29.06647100
  |  154: Species Ti            9.84915500        4.45932400       29.06647100
  |  155: Species O             7.84282000        4.45932400       29.06650000
  |  156: Species O             9.84917700        2.97288300       30.34323700
  |  157: Species O            13.13217800        2.97288300       31.07293900
  |  158: Species O             8.57240800        4.45932400       32.34967600
  |  159: Species Ti            9.84913700        2.97288300       32.34970600
  |  160: Species Ti           13.13220000        4.45932400       32.34970600
  |  161: Species O            11.12586600        4.45932400       32.34973500
  |  162: Species O            13.13222300        2.97288300       33.62647300
  |  163: Species O             9.84909700        2.97288300       34.35617400
  |  164: Species O            11.85545400        4.45932400       35.63291200
  |  165: Species Ti           13.13218300        2.97288300       35.63294100
  |  166: Species Ti            9.84911900        4.45932400       35.63294100
  |  167: Species O             7.84278500        4.45932400       35.63297000
  |  168: Species O             9.84914200        2.97288300       36.90970800
  |  169: Species O            13.13214300        2.97288300       37.63940900
  |  170: Species O             8.57237300        4.45932400       38.91614700
  |  171: Species Ti            9.84910200        2.97288300       38.91617600
  |  172: Species Ti           13.13216500        4.45932400       38.91617600
  |  173: Species O            11.12583100        4.45932400       38.91620600
  |  174: Species O            13.13218800        2.97288300       40.19294300
  |  175: Species O             9.84906200        2.97288300       40.92264500
  |  176: Species Ti            6.56612600        5.94576500       22.50000000
  |  177: Species Ti            9.84919000        7.43220700       22.50000000
  |  178: Species O             7.84285600        7.43220700       22.50002900
  |  179: Species O             9.84921200        5.94576500       23.77676700
  |  180: Species O            13.13221300        5.94576500       24.50646800
  |  181: Species O             8.57244300        7.43220700       25.78320600
  |  182: Species Ti            9.84917200        5.94576500       25.78323500
  |  183: Species Ti           13.13223500        7.43220700       25.78323500
  |  184: Species O            11.12590100        7.43220700       25.78326500
  |  185: Species O             6.56613100        5.94576500       27.06000200
  |  186: Species O             9.84913200        5.94576500       27.78970400
  |  187: Species O            11.85548900        7.43220700       29.06644100
  |  188: Species Ti           13.13221800        5.94576500       29.06647100
  |  189: Species Ti            9.84915500        7.43220700       29.06647100
  |  190: Species O             7.84282000        7.43220700       29.06650000
  |  191: Species O             9.84917700        5.94576500       30.34323700
  |  192: Species O            13.13217800        5.94576500       31.07293900
  |  193: Species O             8.57240800        7.43220700       32.34967600
  |  194: Species Ti            9.84913700        5.94576500       32.34970600
  |  195: Species Ti           13.13220000        7.43220700       32.34970600
  |  196: Species O            11.12586600        7.43220700       32.34973500
  |  197: Species O            13.13222300        5.94576500       33.62647300
  |  198: Species O             9.84909700        5.94576500       34.35617400
  |  199: Species O            11.85545400        7.43220700       35.63291200
  |  200: Species Ti           13.13218300        5.94576500       35.63294100
  |  201: Species Ti            9.84911900        7.43220700       35.63294100
  |  202: Species O             7.84278500        7.43220700       35.63297000
  |  203: Species O             9.84914200        5.94576500       36.90970800
  |  204: Species O            13.13214300        5.94576500       37.63940900
  |  205: Species O             8.57237300        7.43220700       38.91614700
  |  206: Species Ti            9.84910200        5.94576500       38.91617600
  |  207: Species Ti           13.13216500        7.43220700       38.91617600
  |  208: Species O            11.12583100        7.43220700       38.91620600
  |  209: Species O            13.13218800        5.94576500       40.19294300
  |  210: Species O             9.84906200        5.94576500       40.92264500
  |  211: Species Ti           13.13225300        0.00000000       22.50000000
  |  212: Species Ti           16.41531600        1.48644100       22.50000000
  |  213: Species O            14.40898200        1.48644100       22.50002900
  |  214: Species O            16.41533900        0.00000000       23.77676700
  |  215: Species O            19.69833900        0.00000000       24.50646800
  |  216: Species O            15.13857000        1.48644100       25.78320600
  |  217: Species Ti           16.41529900        0.00000000       25.78323500
  |  218: Species Ti           19.69836200        1.48644100       25.78323500
  |  219: Species O            17.69202800        1.48644100       25.78326500
  |  220: Species O            13.13225800        0.00000000       27.06000200
  |  221: Species O            16.41525900        0.00000000       27.78970400
  |  222: Species O            18.42161500        1.48644100       29.06644100
  |  223: Species Ti           19.69834400        0.00000000       29.06647100
  |  224: Species Ti           16.41528100        1.48644100       29.06647100
  |  225: Species O            14.40894700        1.48644100       29.06650000
  |  226: Species O            16.41530400        0.00000000       30.34323700
  |  227: Species O            19.69830400        0.00000000       31.07293900
  |  228: Species O            15.13853400        1.48644100       32.34967600
  |  229: Species Ti           16.41526300        0.00000000       32.34970600
  |  230: Species Ti           19.69832700        1.48644100       32.34970600
  |  231: Species O            17.69199300        1.48644100       32.34973500
  |  232: Species O            19.69834900        0.00000000       33.62647300
  |  233: Species O            16.41522300        0.00000000       34.35617400
  |  234: Species O            18.42158000        1.48644100       35.63291200
  |  235: Species Ti           19.69830900        0.00000000       35.63294100
  |  236: Species Ti           16.41524600        1.48644100       35.63294100
  |  237: Species O            14.40891200        1.48644100       35.63297000
  |  238: Species O            16.41526800        0.00000000       36.90970800
  |  239: Species O            19.69826900        0.00000000       37.63940900
  |  240: Species O            15.13849900        1.48644100       38.91614700
  |  241: Species Ti           16.41522800        0.00000000       38.91617600
  |  242: Species Ti           19.69829200        1.48644100       38.91617600
  |  243: Species O            17.69195700        1.48644100       38.91620600
  |  244: Species O            19.69831400        0.00000000       40.19294300
  |  245: Species O            16.41518800        0.00000000       40.92264500
  |  246: Species Ti           13.13225300        2.97288300       22.50000000
  |  247: Species Ti           16.41531600        4.45932400       22.50000000
  |  248: Species O            14.40898200        4.45932400       22.50002900
  |  249: Species O            16.41533900        2.97288300       23.77676700
  |  250: Species O            19.69833900        2.97288300       24.50646800
  |  251: Species O            15.13857000        4.45932400       25.78320600
  |  252: Species Ti           16.41529900        2.97288300       25.78323500
  |  253: Species Ti           19.69836200        4.45932400       25.78323500
  |  254: Species O            17.69202800        4.45932400       25.78326500
  |  255: Species O            13.13225800        2.97288300       27.06000200
  |  256: Species O            16.41525900        2.97288300       27.78970400
  |  257: Species O            18.42161500        4.45932400       29.06644100
  |  258: Species Ti           19.69834400        2.97288300       29.06647100
  |  259: Species Ti           16.41528100        4.45932400       29.06647100
  |  260: Species O            14.40894700        4.45932400       29.06650000
  |  261: Species O            16.41530400        2.97288300       30.34323700
  |  262: Species O            19.69830400        2.97288300       31.07293900
  |  263: Species O            15.13853400        4.45932400       32.34967600
  |  264: Species Ti           16.41526300        2.97288300       32.34970600
  |  265: Species Ti           19.69832700        4.45932400       32.34970600
  |  266: Species O            17.69199300        4.45932400       32.34973500
  |  267: Species O            19.69834900        2.97288300       33.62647300
  |  268: Species O            16.41522300        2.97288300       34.35617400
  |  269: Species O            18.42158000        4.45932400       35.63291200
  |  270: Species Ti           19.69830900        2.97288300       35.63294100
  |  271: Species Ti           16.41524600        4.45932400       35.63294100
  |  272: Species O            14.40891200        4.45932400       35.63297000
  |  273: Species O            16.41526800        2.97288300       36.90970800
  |  274: Species O            19.69826900        2.97288300       37.63940900
  |  275: Species O            15.13849900        4.45932400       38.91614700
  |  276: Species Ti           16.41522800        2.97288300       38.91617600
  |  277: Species Ti           19.69829200        4.45932400       38.91617600
  |  278: Species O            17.69195700        4.45932400       38.91620600
  |  279: Species O            19.69831400        2.97288300       40.19294300
  |  280: Species O            16.41518800        2.97288300       40.92264500
  |  281: Species Ti           13.13225300        5.94576500       22.50000000
  |  282: Species Ti           16.41531600        7.43220700       22.50000000
  |  283: Species O            14.40898200        7.43220700       22.50002900
  |  284: Species O            16.41533900        5.94576500       23.77676700
  |  285: Species O            19.69833900        5.94576500       24.50646800
  |  286: Species O            15.13857000        7.43220700       25.78320600
  |  287: Species Ti           16.41529900        5.94576500       25.78323500
  |  288: Species Ti           19.69836200        7.43220700       25.78323500
  |  289: Species O            17.69202800        7.43220700       25.78326500
  |  290: Species O            13.13225800        5.94576500       27.06000200
  |  291: Species O            16.41525900        5.94576500       27.78970400
  |  292: Species O            18.42161500        7.43220700       29.06644100
  |  293: Species Ti           19.69834400        5.94576500       29.06647100
  |  294: Species Ti           16.41528100        7.43220700       29.06647100
  |  295: Species O            14.40894700        7.43220700       29.06650000
  |  296: Species O            16.41530400        5.94576500       30.34323700
  |  297: Species O            19.69830400        5.94576500       31.07293900
  |  298: Species O            15.13853400        7.43220700       32.34967600
  |  299: Species Ti           16.41526300        5.94576500       32.34970600
  |  300: Species Ti           19.69832700        7.43220700       32.34970600
  |  301: Species O            17.69199300        7.43220700       32.34973500
  |  302: Species O            19.69834900        5.94576500       33.62647300
  |  303: Species O            16.41522300        5.94576500       34.35617400
  |  304: Species O            18.42158000        7.43220700       35.63291200
  |  305: Species Ti           19.69830900        5.94576500       35.63294100
  |  306: Species Ti           16.41524600        7.43220700       35.63294100
  |  307: Species O            14.40891200        7.43220700       35.63297000
  |  308: Species O            16.41526800        5.94576500       36.90970800
  |  309: Species O            19.69826900        5.94576500       37.63940900
  |  310: Species O            15.13849900        7.43220700       38.91614700
  |  311: Species Ti           16.41522800        5.94576500       38.91617600
  |  312: Species Ti           19.69829200        7.43220700       38.91617600
  |  313: Species O            17.69195700        7.43220700       38.91620600
  |  314: Species O            19.69831400        5.94576500       40.19294300
  |  315: Species O            16.41518800        5.94576500       40.92264500

  Lattice parameters for 3D lattice (in Angstroms) :    19.698380    8.918648   63.422645
  Angle(s) between unit vectors (in degrees)       :    90.000000   90.000000   90.000000


  Quantities derived from the lattice vectors (in Angstrom^-1):
  | Reciprocal lattice vector 1:  0.318970  0.000000  0.000000
  | Reciprocal lattice vector 2:  0.000000  0.704500  0.000000
  | Reciprocal lattice vector 3:  0.000000  0.000000  0.099068
  | Unit cell volume                               :   0.111423E+05  Angstrom^3

  Fractional coordinates:
                         L1                L2                L3
       atom_frac         0.99999995        0.00000000        0.35476288  Ti
       atom_frac         0.16666665        0.16666663        0.35476288  Ti
       atom_frac         0.06481391        0.16666663        0.35476333  F
       atom_frac         0.16666782        0.00000000        0.37489397  O
       atom_frac         0.33333127        0.00000000        0.38639934  O
       atom_frac         0.10185188        0.16666663        0.40652997  O
       atom_frac         0.16666579        0.00000000        0.40653043  Ti
       atom_frac         0.33333244        0.16666663        0.40653043  Ti
       atom_frac         0.23147970        0.16666663        0.40653090  O
       atom_frac         0.00000025        0.00000000        0.42666152  O
       atom_frac         0.16666376        0.00000000        0.43816690  O
       atom_frac         0.26851761        0.16666663        0.45829752  O
       atom_frac         0.33333152        0.00000000        0.45829799  Ti
       atom_frac         0.16666487        0.16666663        0.45829799  Ti
       atom_frac         0.06481213        0.16666663        0.45829845  O
       atom_frac         0.16666604        0.00000000        0.47842907  O
       atom_frac         0.33332949        0.00000000        0.48993445  O
       atom_frac         0.10185005        0.16666663        0.51006507  O
       atom_frac         0.16666396        0.00000000        0.51006555  Ti
       atom_frac         0.33333066        0.16666663        0.51006555  Ti
       atom_frac         0.23147792        0.16666663        0.51006600  O
       atom_frac         0.33333178        0.00000000        0.53019664  O
       atom_frac         0.16666193        0.00000000        0.54170201  O
       atom_frac         0.26851584        0.16666663        0.56183264  O
       atom_frac         0.33332975        0.00000000        0.56183310  Ti
       atom_frac         0.16666310        0.16666663        0.56183310  Ti
       atom_frac         0.06481035        0.16666663        0.56183355  O
       atom_frac         0.16666421        0.00000000        0.58196419  O
       atom_frac         0.33332772        0.00000000        0.59346956  O
       atom_frac         0.10184827        0.16666663        0.61360019  O
       atom_frac         0.16666218        0.00000000        0.61360065  Ti
       atom_frac         0.33332888        0.16666663        0.61360065  Ti
       atom_frac         0.23147609        0.16666663        0.61360112  O
       atom_frac         0.33333000        0.00000000        0.63373174  O
       atom_frac         0.16666015        0.00000000        0.64523712  O
       atom_frac         0.99999995        0.33333337        0.35476288  Ti
       atom_frac         0.16666665        0.50000000        0.35476288  Ti
       atom_frac         0.06481391        0.50000000        0.35476333  O
       atom_frac         0.16666782        0.33333337        0.37489397  O
       atom_frac         0.33333127        0.33333337        0.38639934  O
       atom_frac         0.10185188        0.50000000        0.40652997  O
       atom_frac         0.16666579        0.33333337        0.40653043  Ti
       atom_frac         0.33333244        0.50000000        0.40653043  Ti
       atom_frac         0.23147970        0.50000000        0.40653090  O
       atom_frac         0.00000025        0.33333337        0.42666152  O
       atom_frac         0.16666376        0.33333337        0.43816690  O
       atom_frac         0.26851761        0.50000000        0.45829752  O
       atom_frac         0.33333152        0.33333337        0.45829799  Ti
       atom_frac         0.16666487        0.50000000        0.45829799  Ti
       atom_frac         0.06481213        0.50000000        0.45829845  O
       atom_frac         0.16666604        0.33333337        0.47842907  O
       atom_frac         0.33332949        0.33333337        0.48993445  O
       atom_frac         0.10185005        0.50000000        0.51006507  O
       atom_frac         0.16666396        0.33333337        0.51006555  Ti
       atom_frac         0.33333066        0.50000000        0.51006555  Ti
       atom_frac         0.23147792        0.50000000        0.51006600  O
       atom_frac         0.33333178        0.33333337        0.53019664  O
       atom_frac         0.16666193        0.33333337        0.54170201  O
       atom_frac         0.26851584        0.50000000        0.56183264  O
       atom_frac         0.33332975        0.33333337        0.56183310  Ti
       atom_frac         0.16666310        0.50000000        0.56183310  Ti
       atom_frac         0.06481035        0.50000000        0.56183355  O
       atom_frac         0.16666421        0.33333337        0.58196419  O
       atom_frac         0.33332772        0.33333337        0.59346956  O
       atom_frac         0.10184827        0.50000000        0.61360019  O
       atom_frac         0.16666218        0.33333337        0.61360065  Ti
       atom_frac         0.33332888        0.50000000        0.61360065  Ti
       atom_frac         0.23147609        0.50000000        0.61360112  O
       atom_frac         0.33333000        0.33333337        0.63373174  O
       atom_frac         0.16666015        0.33333337        0.64523712  O
       atom_frac         0.99999995        0.66666663        0.35476288  Ti
       atom_frac         0.16666665        0.83333337        0.35476288  Ti
       atom_frac         0.06481391        0.83333337        0.35476333  O
       atom_frac         0.16666782        0.66666663        0.37489397  O
       atom_frac         0.33333127        0.66666663        0.38639934  O
       atom_frac         0.10185188        0.83333337        0.40652997  O
       atom_frac         0.16666579        0.66666663        0.40653043  Ti
       atom_frac         0.33333244        0.83333337        0.40653043  Ti
       atom_frac         0.23147970        0.83333337        0.40653090  O
       atom_frac         0.00000025        0.66666663        0.42666152  O
       atom_frac         0.16666376        0.66666663        0.43816690  O
       atom_frac         0.26851761        0.83333337        0.45829752  O
       atom_frac         0.33333152        0.66666663        0.45829799  Ti
       atom_frac         0.16666487        0.83333337        0.45829799  Ti
       atom_frac         0.06481213        0.83333337        0.45829845  O
       atom_frac         0.16666604        0.66666663        0.47842907  O
       atom_frac         0.33332949        0.66666663        0.48993445  O
       atom_frac         0.10185005        0.83333337        0.51006507  O
       atom_frac         0.16666396        0.66666663        0.51006555  Ti
       atom_frac         0.33333066        0.83333337        0.51006555  Ti
       atom_frac         0.23147792        0.83333337        0.51006600  O
       atom_frac         0.33333178        0.66666663        0.53019664  O
       atom_frac         0.16666193        0.66666663        0.54170201  O
       atom_frac         0.26851584        0.83333337        0.56183264  O
       atom_frac         0.33332975        0.66666663        0.56183310  Ti
       atom_frac         0.16666310        0.83333337        0.56183310  Ti
       atom_frac         0.06481035        0.83333337        0.56183355  O
       atom_frac         0.16666421        0.66666663        0.58196419  O
       atom_frac         0.33332772        0.66666663        0.59346956  O
       atom_frac         0.10184827        0.83333337        0.61360019  O
       atom_frac         0.16666218        0.66666663        0.61360065  Ti
       atom_frac         0.33332888        0.83333337        0.61360065  Ti
       atom_frac         0.23147609        0.83333337        0.61360112  O
       atom_frac         0.33333000        0.66666663        0.63373174  O
       atom_frac         0.16666015        0.66666663        0.64523712  O
       atom_frac         0.33333330        0.00000000        0.35476288  Ti
       atom_frac         0.50000000        0.16666663        0.35476288  Ti
       atom_frac         0.39814726        0.16666663        0.35476333  O
       atom_frac         0.50000112        0.00000000        0.37489397  O
       atom_frac         0.66666462        0.00000000        0.38639934  O
       atom_frac         0.43518518        0.16666663        0.40652997  O
       atom_frac         0.49999909        0.00000000        0.40653043  Ti
       atom_frac         0.66666574        0.16666663        0.40653043  Ti
       atom_frac         0.56481299        0.16666663        0.40653090  O
       atom_frac         0.33333355        0.00000000        0.42666152  O
       atom_frac         0.49999706        0.00000000        0.43816690  O
       atom_frac         0.60185096        0.16666663        0.45829752  O
       atom_frac         0.66666487        0.00000000        0.45829799  Ti
       atom_frac         0.49999822        0.16666663        0.45829799  Ti
       atom_frac         0.39814543        0.16666663        0.45829845  O
       atom_frac         0.49999934        0.00000000        0.47842907  O
       atom_frac         0.66666284        0.00000000        0.48993445  O
       atom_frac         0.43518340        0.16666663        0.51006507  O
       atom_frac         0.49999731        0.00000000        0.51006555  Ti
       atom_frac         0.66666396        0.16666663        0.51006555  Ti
       atom_frac         0.56481122        0.16666663        0.51006600  O
       atom_frac         0.66666513        0.00000000        0.53019664  O
       atom_frac         0.49999528        0.00000000        0.54170201  O
       atom_frac         0.60184919        0.16666663        0.56183264  O
       atom_frac         0.66666310        0.00000000        0.56183310  Ti
       atom_frac         0.49999640        0.16666663        0.56183310  Ti
       atom_frac         0.39814365        0.16666663        0.56183355  O
       atom_frac         0.49999756        0.00000000        0.58196419  O
       atom_frac         0.66666107        0.00000000        0.59346956  O
       atom_frac         0.43518162        0.16666663        0.61360019  O
       atom_frac         0.49999553        0.00000000        0.61360065  Ti
       atom_frac         0.66666218        0.16666663        0.61360065  Ti
       atom_frac         0.56480944        0.16666663        0.61360112  O
       atom_frac         0.66666335        0.00000000        0.63373174  O
       atom_frac         0.49999350        0.00000000        0.64523712  O
       atom_frac         0.33333330        0.33333337        0.35476288  Ti
       atom_frac         0.50000000        0.50000000        0.35476288  Ti
       atom_frac         0.39814726        0.50000000        0.35476333  O
       atom_frac         0.50000112        0.33333337        0.37489397  O
       atom_frac         0.66666462        0.33333337        0.38639934  O
       atom_frac         0.43518518        0.50000000        0.40652997  O
       atom_frac         0.49999909        0.33333337        0.40653043  Ti
       atom_frac         0.66666574        0.50000000        0.40653043  Ti
       atom_frac         0.56481299        0.50000000        0.40653090  O
       atom_frac         0.33333355        0.33333337        0.42666152  O
       atom_frac         0.49999706        0.33333337        0.43816690  O
       atom_frac         0.60185096        0.50000000        0.45829752  O
       atom_frac         0.66666487        0.33333337        0.45829799  Ti
       atom_frac         0.49999822        0.50000000        0.45829799  Ti
       atom_frac         0.39814543        0.50000000        0.45829845  O
       atom_frac         0.49999934        0.33333337        0.47842907  O
       atom_frac         0.66666284        0.33333337        0.48993445  O
       atom_frac         0.43518340        0.50000000        0.51006507  O
       atom_frac         0.49999731        0.33333337        0.51006555  Ti
       atom_frac         0.66666396        0.50000000        0.51006555  Ti
       atom_frac         0.56481122        0.50000000        0.51006600  O
       atom_frac         0.66666513        0.33333337        0.53019664  O
       atom_frac         0.49999528        0.33333337        0.54170201  O
       atom_frac         0.60184919        0.50000000        0.56183264  O
       atom_frac         0.66666310        0.33333337        0.56183310  Ti
       atom_frac         0.49999640        0.50000000        0.56183310  Ti
       atom_frac         0.39814365        0.50000000        0.56183355  O
       atom_frac         0.49999756        0.33333337        0.58196419  O
       atom_frac         0.66666107        0.33333337        0.59346956  O
       atom_frac         0.43518162        0.50000000        0.61360019  O
       atom_frac         0.49999553        0.33333337        0.61360065  Ti
       atom_frac         0.66666218        0.50000000        0.61360065  Ti
       atom_frac         0.56480944        0.50000000        0.61360112  O
       atom_frac         0.66666335        0.33333337        0.63373174  O
       atom_frac         0.49999350        0.33333337        0.64523712  O
       atom_frac         0.33333330        0.66666663        0.35476288  Ti
       atom_frac         0.50000000        0.83333337        0.35476288  Ti
       atom_frac         0.39814726        0.83333337        0.35476333  O
       atom_frac         0.50000112        0.66666663        0.37489397  O
       atom_frac         0.66666462        0.66666663        0.38639934  O
       atom_frac         0.43518518        0.83333337        0.40652997  O
       atom_frac         0.49999909        0.66666663        0.40653043  Ti
       atom_frac         0.66666574        0.83333337        0.40653043  Ti
       atom_frac         0.56481299        0.83333337        0.40653090  O
       atom_frac         0.33333355        0.66666663        0.42666152  O
       atom_frac         0.49999706        0.66666663        0.43816690  O
       atom_frac         0.60185096        0.83333337        0.45829752  O
       atom_frac         0.66666487        0.66666663        0.45829799  Ti
       atom_frac         0.49999822        0.83333337        0.45829799  Ti
       atom_frac         0.39814543        0.83333337        0.45829845  O
       atom_frac         0.49999934        0.66666663        0.47842907  O
       atom_frac         0.66666284        0.66666663        0.48993445  O
       atom_frac         0.43518340        0.83333337        0.51006507  O
       atom_frac         0.49999731        0.66666663        0.51006555  Ti
       atom_frac         0.66666396        0.83333337        0.51006555  Ti
       atom_frac         0.56481122        0.83333337        0.51006600  O
       atom_frac         0.66666513        0.66666663        0.53019664  O
       atom_frac         0.49999528        0.66666663        0.54170201  O
       atom_frac         0.60184919        0.83333337        0.56183264  O
       atom_frac         0.66666310        0.66666663        0.56183310  Ti
       atom_frac         0.49999640        0.83333337        0.56183310  Ti
       atom_frac         0.39814365        0.83333337        0.56183355  O
       atom_frac         0.49999756        0.66666663        0.58196419  O
       atom_frac         0.66666107        0.66666663        0.59346956  O
       atom_frac         0.43518162        0.83333337        0.61360019  O
       atom_frac         0.49999553        0.66666663        0.61360065  Ti
       atom_frac         0.66666218        0.83333337        0.61360065  Ti
       atom_frac         0.56480944        0.83333337        0.61360112  O
       atom_frac         0.66666335        0.66666663        0.63373174  O
       atom_frac         0.49999350        0.66666663        0.64523712  O
       atom_frac         0.66666665        0.00000000        0.35476288  Ti
       atom_frac         0.83333330        0.16666663        0.35476288  Ti
       atom_frac         0.73148056        0.16666663        0.35476333  O
       atom_frac         0.83333447        0.00000000        0.37489397  O
       atom_frac         0.99999792        0.00000000        0.38639934  O
       atom_frac         0.76851853        0.16666663        0.40652997  O
       atom_frac         0.83333244        0.00000000        0.40653043  Ti
       atom_frac         0.99999909        0.16666663        0.40653043  Ti
       atom_frac         0.89814635        0.16666663        0.40653090  O
       atom_frac         0.66666690        0.00000000        0.42666152  O
       atom_frac         0.83333041        0.00000000        0.43816690  O
       atom_frac         0.93518426        0.16666663        0.45829752  O
       atom_frac         0.99999817        0.00000000        0.45829799  Ti
       atom_frac         0.83333152        0.16666663        0.45829799  Ti
       atom_frac         0.73147878        0.16666663        0.45829845  O
       atom_frac         0.83333269        0.00000000        0.47842907  O
       atom_frac         0.99999614        0.00000000        0.48993445  O
       atom_frac         0.76851670        0.16666663        0.51006507  O
       atom_frac         0.83333061        0.00000000        0.51006555  Ti
       atom_frac         0.99999731        0.16666663        0.51006555  Ti
       atom_frac         0.89814457        0.16666663        0.51006600  O
       atom_frac         0.99999843        0.00000000        0.53019664  O
       atom_frac         0.83332858        0.00000000        0.54170201  O
       atom_frac         0.93518249        0.16666663        0.56183264  O
       atom_frac         0.99999640        0.00000000        0.56183310  Ti
       atom_frac         0.83332975        0.16666663        0.56183310  Ti
       atom_frac         0.73147700        0.16666663        0.56183355  O
       atom_frac         0.83333086        0.00000000        0.58196419  O
       atom_frac         0.99999437        0.00000000        0.59346956  O
       atom_frac         0.76851492        0.16666663        0.61360019  O
       atom_frac         0.83332883        0.00000000        0.61360065  Ti
       atom_frac         0.99999553        0.16666663        0.61360065  Ti
       atom_frac         0.89814274        0.16666663        0.61360112  O
       atom_frac         0.99999665        0.00000000        0.63373174  O
       atom_frac         0.83332680        0.00000000        0.64523712  O
       atom_frac         0.66666665        0.33333337        0.35476288  Ti
       atom_frac         0.83333330        0.50000000        0.35476288  Ti
       atom_frac         0.73148056        0.50000000        0.35476333  O
       atom_frac         0.83333447        0.33333337        0.37489397  O
       atom_frac         0.99999792        0.33333337        0.38639934  O
       atom_frac         0.76851853        0.50000000        0.40652997  O
       atom_frac         0.83333244        0.33333337        0.40653043  Ti
       atom_frac         0.99999909        0.50000000        0.40653043  Ti
       atom_frac         0.89814635        0.50000000        0.40653090  O
       atom_frac         0.66666690        0.33333337        0.42666152  O
       atom_frac         0.83333041        0.33333337        0.43816690  O
       atom_frac         0.93518426        0.50000000        0.45829752  O
       atom_frac         0.99999817        0.33333337        0.45829799  Ti
       atom_frac         0.83333152        0.50000000        0.45829799  Ti
       atom_frac         0.73147878        0.50000000        0.45829845  O
       atom_frac         0.83333269        0.33333337        0.47842907  O
       atom_frac         0.99999614        0.33333337        0.48993445  O
       atom_frac         0.76851670        0.50000000        0.51006507  O
       atom_frac         0.83333061        0.33333337        0.51006555  Ti
[...]
  |   182       20.750728        1.249272        5.962450       12.498316        2.146355        0.143607
  |   183       20.755536        1.244464        5.968973       12.499390        2.143020        0.144153
  |   184        8.626043       -0.626043        3.845990        4.770094        0.009960
  |   185        8.608751       -0.608751        3.848705        4.749906        0.010140
  |   186        8.625137       -0.625137        3.846672        4.768601        0.009863
  |   187        8.623669       -0.623669        3.847695        4.766095        0.009879
  |   188       20.750631        1.249369        5.962431       12.507187        2.136356        0.144656
  |   189       20.750179        1.249821        5.962538       12.507316        2.135599        0.144726
  |   190        8.623654       -0.623654        3.847748        4.766022        0.009884
  |   191        8.616666       -0.616666        3.848909        4.757714        0.010044
  |   192        8.626311       -0.626311        3.847094        4.769386        0.009830
  |   193        8.623922       -0.623922        3.847721        4.766329        0.009872
  |   194       20.750977        1.249023        5.962849       12.507633        2.135767        0.144728
  |   195       20.751107        1.248893        5.962703       12.507704        2.135963        0.144738
  |   196        8.623848       -0.623848        3.847733        4.766242        0.009873
  |   197        8.616395       -0.616395        3.848966        4.757356        0.010073
  |   198        8.624515       -0.624515        3.846896        4.767778        0.009841
  |   199        8.622810       -0.622810        3.847548        4.765414        0.009848
  |   200       20.747779        1.252221        5.962286       12.505087        2.136022        0.144383
  |   201       20.743672        1.256328        5.961353       12.503981        2.133518        0.144821
  |   202        8.622802       -0.622802        3.847550        4.765404        0.009848
  |   203        8.607360       -0.607360        3.848199        4.748968        0.010193
  |   204        8.609296       -0.609296        3.845553        4.753300        0.010443
  |   205        8.581782       -0.581782        3.857401        4.714183        0.010199
  |   206       20.852117        1.147883        6.028857       12.508927        2.170866        0.143466
  |   207       20.930602        1.069398        6.048796       12.526764        2.210022        0.145020
  |   208        8.581764       -0.581764        3.857404        4.714161        0.010199
  |   209        8.341234       -0.341234        3.896656        4.432896        0.011681
  |   210        8.122526       -0.122526        3.952528        4.163226        0.006772
  |   211       21.307688        0.692312        6.420818       12.426495        2.398921        0.061455
  |   212       21.346809        0.653191        6.452152       12.437343        2.395990        0.061324
  |   213        8.646852       -0.646852        3.855676        4.776507        0.014670
  |   214        8.601782       -0.601782        3.848128        4.741176        0.012478
  |   215        8.644464       -0.644464        3.846976        4.787990        0.009499
  |   216        8.625050       -0.625050        3.847512        4.767640        0.009898
  |   217       20.751160        1.248840        5.962439       12.498287        2.146823        0.143611
  |   218       20.767533        1.232467        5.971192       12.499858        2.152547        0.143936
  |   219        8.626549       -0.626549        3.846008        4.770595        0.009946
  |   220        8.609075       -0.609075        3.848611        4.750307        0.010156
  |   221        8.625099       -0.625099        3.846668        4.768569        0.009862
  |   222        8.623629       -0.623629        3.847715        4.766033        0.009881
  |   223       20.750647        1.249353        5.962458       12.507178        2.136366        0.144645
  |   224       20.750169        1.249831        5.962523       12.507341        2.135575        0.144731
  |   225        8.623685       -0.623685        3.847739        4.766066        0.009880
  |   226        8.616694       -0.616694        3.848905        4.757747        0.010042
  |   227        8.626324       -0.626324        3.847097        4.769395        0.009831
  |   228        8.623868       -0.623868        3.847728        4.766268        0.009873
  |   229       20.750970        1.249030        5.962847       12.507637        2.135756        0.144730
  |   230       20.751136        1.248864        5.962705       12.507696        2.135999        0.144735
  |   231        8.623885       -0.623885        3.847727        4.766286        0.009872
  |   232        8.616372       -0.616372        3.848969        4.757330        0.010073
  |   233        8.624511       -0.624511        3.846897        4.767773        0.009841
  |   234        8.622799       -0.622799        3.847550        4.765401        0.009848
  |   235       20.747787        1.252213        5.962287       12.505083        2.136034        0.144382
  |   236       20.743669        1.256331        5.961352       12.503982        2.133514        0.144822
  |   237        8.622798       -0.622798        3.847550        4.765401        0.009848
  |   238        8.607372       -0.607372        3.848197        4.748982        0.010193
  |   239        8.609292       -0.609292        3.845554        4.753295        0.010443
  |   240        8.581762       -0.581762        3.857405        4.714159        0.010199
  |   241       20.852115        1.147885        6.028857       12.508931        2.170860        0.143467
  |   242       20.930606        1.069394        6.048796       12.526763        2.210028        0.145019
  |   243        8.581763       -0.581763        3.857404        4.714160        0.010199
  |   244        8.341231       -0.341231        3.896656        4.432894        0.011681
  |   245        8.122525       -0.122525        3.952528        4.163226        0.006772
  |   246       21.307688        0.692312        6.420818       12.426495        2.398921        0.061455
  |   247       21.354929        0.645071        6.457244       12.437847        2.398554        0.061284
  |   248        8.647002       -0.647002        3.855562        4.776793        0.014647
  |   249        8.601782       -0.601782        3.848128        4.741176        0.012478
  |   250        8.644465       -0.644465        3.846976        4.787990        0.009499
  |   251        8.625076       -0.625076        3.847521        4.767656        0.009899
  |   252       20.751160        1.248840        5.962439       12.498287        2.146822        0.143611
  |   253       20.756007        1.243993        5.968995       12.498017        2.145084        0.143912
  |   254        8.626714       -0.626714        3.845999        4.770768        0.009948
  |   255        8.609075       -0.609075        3.848611        4.750308        0.010156
  |   256        8.625099       -0.625099        3.846668        4.768570        0.009862
  |   257        8.623609       -0.623609        3.847714        4.766014        0.009881
  |   258       20.750647        1.249353        5.962458       12.507178        2.136366        0.144645
  |   259       20.750167        1.249833        5.962520       12.507329        2.135590        0.144728
  |   260        8.623689       -0.623689        3.847739        4.766070        0.009880
  |   261        8.616694       -0.616694        3.848905        4.757747        0.010042
  |   262        8.626324       -0.626324        3.847097        4.769395        0.009831
  |   263        8.623868       -0.623868        3.847728        4.766267        0.009873
  |   264       20.750970        1.249030        5.962847       12.507637        2.135755        0.144730
  |   265       20.751120        1.248880        5.962704       12.507698        2.135981        0.144737
  |   266        8.623884       -0.623884        3.847727        4.766285        0.009872
  |   267        8.616373       -0.616373        3.848969        4.757331        0.010073
  |   268        8.624511       -0.624511        3.846897        4.767773        0.009841
  |   269        8.622798       -0.622798        3.847550        4.765400        0.009848
  |   270       20.747787        1.252213        5.962287       12.505083        2.136034        0.144382
  |   271       20.743669        1.256331        5.961352       12.503982        2.133514        0.144822
  |   272        8.622798       -0.622798        3.847550        4.765401        0.009848
  |   273        8.607372       -0.607372        3.848197        4.748982        0.010193
  |   274        8.609292       -0.609292        3.845554        4.753295        0.010443
  |   275        8.581761       -0.581761        3.857405        4.714158        0.010199
  |   276       20.852115        1.147885        6.028857       12.508931        2.170860        0.143467
  |   277       20.930605        1.069395        6.048796       12.526763        2.210026        0.145020
  |   278        8.581762       -0.581762        3.857404        4.714159        0.010199
  |   279        8.341231       -0.341231        3.896656        4.432894        0.011681
  |   280        8.122526       -0.122526        3.952528        4.163226        0.006772
  |   281       21.307174        0.692826        6.421230       12.426786        2.397678        0.061480
  |   282       21.354929        0.645071        6.457244       12.437847        2.398554        0.061284
  |   283        8.647002       -0.647002        3.855562        4.776794        0.014647
  |   284        8.602581       -0.602581        3.848220        4.741884        0.012477
  |   285        8.636794       -0.636794        3.847412        4.779894        0.009489
  |   286        8.625076       -0.625076        3.847521        4.767657        0.009899
  |   287       20.750961        1.249039        5.962658       12.498271        2.146427        0.143605
  |   288       20.756007        1.243993        5.968995       12.498017        2.145083        0.143912
  |   289        8.626715       -0.626715        3.845999        4.770768        0.009948
  |   290        8.609070       -0.609070        3.848612        4.750302        0.010156
  |   291        8.625088       -0.625088        3.846675        4.768549        0.009864
  |   292        8.623609       -0.623609        3.847714        4.766014        0.009881
  |   293       20.750622        1.249378        5.962455       12.507182        2.136335        0.144651
  |   294       20.750167        1.249833        5.962520       12.507329        2.135590        0.144728
  |   295        8.623690       -0.623690        3.847739        4.766070        0.009880
  |   296        8.616692       -0.616692        3.848905        4.757745        0.010043
  |   297        8.626336       -0.626336        3.847092        4.769413        0.009831
  |   298        8.623868       -0.623868        3.847728        4.766268        0.009873
  |   299       20.750968        1.249032        5.962849       12.507638        2.135751        0.144730
  |   300       20.751120        1.248880        5.962704       12.507697        2.135981        0.144737
  |   301        8.623884       -0.623884        3.847727        4.766285        0.009872
  |   302        8.616377       -0.616377        3.848969        4.757335        0.010073
  |   303        8.624512       -0.624512        3.846897        4.767774        0.009841
  |   304        8.622798       -0.622798        3.847550        4.765400        0.009848
  |   305       20.747784        1.252216        5.962287       12.505084        2.136030        0.144382
  |   306       20.743669        1.256331        5.961352       12.503982        2.133514        0.144822
  |   307        8.622798       -0.622798        3.847550        4.765401        0.009848
  |   308        8.607372       -0.607372        3.848197        4.748982        0.010193
  |   309        8.609295       -0.609295        3.845553        4.753299        0.010443
  |   310        8.581762       -0.581762        3.857405        4.714158        0.010199
  |   311       20.852115        1.147885        6.028857       12.508931        2.170860        0.143467
  |   312       20.930604        1.069396        6.048796       12.526763        2.210026        0.145019
  |   313        8.581763       -0.581763        3.857404        4.714159        0.010199
  |   314        8.341233       -0.341233        3.896656        4.432895        0.011681
  |   315        8.122524       -0.122524        3.952528        4.163224        0.006772
  |
  | Total     4032.000000        1.000000
 
  Writing Mulliken decomposition to disk ...

  Mulliken analysis                                       :  max(cpu_time)    wall_clock(cpu1)
  | Time for Mulliken analysis                            :          7.788               7.794
  | Total time for Mulliken analysis                      :          7.788               7.794
------------------------------------------------------------

------------------------------------------------------------------------------
  Final output of selected total energy values:

  The following output summarizes some interesting total energy values
  at the end of a run (AFTER all relaxation, molecular dynamics, etc.).

  | Total energy of the DFT / Hartree-Fock s.c.f. calculation      :       -2941350.819864205 eV
  | Final zero-broadening corrected energy (caution - metals only) :       -2941350.912151417 eV
  | For reference only, the value of 1 Hartree used in FHI-aims is :             27.211384500 eV
  | For reference only, the overall average (free atom contribution
  | + realspace contribution) of the electrostatic potential after
  | s.c.f. convergence is                                          :             -5.250152425 eV

  Before relying on these values, please be sure to understand exactly which
  total energy value is referred to by a given number. Different objects may
  all carry the same name 'total energy'. Definitions:

  Total energy of the DFT / Hartree-Fock s.c.f. calculation:
  | Note that this energy does not include ANY quantities calculated after the
  | s.c.f. cycle, in particular not ANY RPA, MP2, etc. many-body perturbation terms.

  Final zero-broadening corrected energy:
  | For metallic systems only, a broadening of the occupation numbers at the Fermi
  | level can be extrapolated back to zero broadening by an electron-gas inspired
  | formula. For all systems that are not real metals, this value can be
  | meaningless and should be avoided.

------------------------------------------------------------------------------
  Methods described in the following list of references were used in this FHI-aims run.
  If you publish the results, please make sure to cite these reference if they apply.
  FHI-aims is an academic code, and for our developers (often, Ph.D. students
  and postdocs), scientific credit in the community is essential.
  Thank you for helping us!

  For any use of FHI-aims, please cite:

    Volker Blum, Ralf Gehrke, Felix Hanke, Paula Havu, Ville Havu,
    Xinguo Ren, Karsten Reuter, and Matthias Scheffler
    'Ab initio molecular simulations with numeric atom-centered orbitals'
    Computer Physics Communications 180, 2175-2196 (2009)
    http://doi.org/10.1016/j.cpc.2009.06.022


  The provided symmetry information was generated with SPGlib:

    Atsushi Togo, Yusuke Seto, Dimitar Pashov
    SPGlib 1.7.3 obtained from http://spglib.sourceforge.net
    Licence: New BSD license
    Copyright (C) 2008 Atsushi Togo


  The ELSI infrastructure was used in your run to solve the Kohn-Sham electronic structure.
  Please check out https://wordpress.elsi-interchange.org to learn more.
  If scalability is important for your project, please acknowledge ELSI by citing:

    V. W-z. Yu, F. Corsetti, A. Garcia, W. P. Huhn, M. Jacquelin, W. Jia,
    B. Lange, L. Lin, J. Lu, W. Mi, A. Seifitokaldani, A. Vazquez-Mayagoitia,
    C. Yang, H. Yang, and V. Blum
    'ELSI: A unified software interface for Kohn-Sham electronic structure solvers'
    Computer Physics Communications 222, 267-285 (2018).
    http://doi.org/10.1016/j.cpc.2017.09.007


  For the real-space grid partitioning and parallelization used in this calculation, please cite:

    Ville Havu, Volker Blum, Paula Havu, and Matthias Scheffler,
    'Efficient O(N) integration for all-electron electronic structure calculation'
    'using numerically tabulated basis functions'
    Journal of Computational Physics 228, 8367-8379 (2009).
    http://doi.org/10.1016/j.jcp.2009.08.008

  Of course, there are many other important community references, e.g., those cited in the
  above references. Our list is limited to references that describe implementations in the
  FHI-aims code. The reason is purely practical (length of this list) - please credit others as well.

   One or more s.c.f. cycles took more than 50 s.c.f. iterations.
   It might be worth adjusting your convergence settings. For example,
   metals need a larger broadening and a smaller "charge_mix_param" value than semiconductors.

------------------------------------------------------------
          Leaving FHI-aims.
          Date     :  20241006, Time     :  174306.813

          Computational steps:
          | Number of self-consistency cycles          :          107
          | Number of SCF (re)initializations          :            1

          Detailed time accounting                     :  max(cpu_time)    wall_clock(cpu1)
          | Total time                                  :     8696.582 s        8697.017 s
          | Preparation time                            :        0.287 s           0.287 s
          | Boundary condition initalization            :        0.185 s           0.186 s
          | Grid partitioning                           :        7.033 s           7.034 s
          | Preloading free-atom quantities on grid     :        8.805 s           8.806 s
          | Free-atom superposition energy              :        1.678 s           1.678 s
          | Total time for integrations                 :      781.917 s         781.943 s
          | Total time for solution of K.-S. equations  :     2596.237 s        2596.396 s
          | Total time for density update               :     1631.174 s        1631.245 s
          | Total time for mixing & preconditioning     :     3315.688 s        3315.814 s
          | Total time for Hartree multipole update     :        2.269 s           2.268 s
          | Total time for Hartree multipole sum        :      341.722 s         341.738 s
          | Total time for total energy evaluation      :        0.031 s           0.120 s
          | Total time for scaled ZORA corrections      :        0.000 s           0.000 s
          | Total time for Mulliken analysis            :        7.802 s           7.794 s

          Partial memory accounting:
          | Residual value for overall tracked memory usage across tasks:     0.000000 MB (should be 0.000000 MB)
          | Peak values for overall tracked memory usage:
          |   Minimum:      218.278 MB (on task 15 after allocating mulliken_decomp)
          |   Maximum:      236.210 MB (on task 28 after allocating gradient_basis_wave)
          |   Average:      227.094 MB
          | Largest tracked array allocation:
          |   Minimum:       36.754 MB (ovlp_complex on task 15)
          |   Maximum:       37.516 MB (ovlp_complex on task  0)
          |   Average:       37.205 MB
          Note:  These values currently only include a subset of arrays which are explicitly tracked.
          The "true" memory usage will be greater.

          Have a nice day.
------------------------------------------------------------
