------------------------------------------------------------
          Invoking FHI-aims ...

          When using FHI-aims, please cite the following reference:

            Volker Blum, Ralf Gehrke, Felix Hanke, Paula Havu,
            Ville Havu, Xinguo Ren, Karsten Reuter, and Matthias Scheffler,
            'Ab Initio Molecular Simulations with Numeric Atom-Centered Orbitals',
            Computer Physics Communications 180, 2175-2196 (2009)

          In addition, many other developments in FHI-aims are likely important for
          your particular application. If so, please cite them. A partial list of references
          is written at the end of this file. Thank you for giving credit to the authors
          of these developments.

          For general information about FHI-aims please find us at

            https://fhi-aims.org

          Online tutorials can be found at

            https://fhi-aims-club.gitlab.io/tutorials/tutorials-overview/

          For any questions about FHI-aims, please visit our slack channel at

            https://fhi-aims.slack.com

          and our main development and support site at

            https://aims-git.rz-berlin.mpg.de .

          The latter site, in particular, has a wiki to collect information, as well
          as an issue tracker to log discussions, suggest improvements, and report issues
          or bugs. https://aims-git.rz-berlin.mpg.de is also the main development site
          of the project and all new and updated code versions can be obtained there.
          Please send an email to aims-coordinators@fhi-berlin.mpg.de and we will add
          you to these sites. They are for you and everyone is welcome there.

------------------------------------------------------------



  Date     :  20241006, Time     :  124858.608
  Time zero on CPU 1             :   0.387980000000000E+00  s.
  Internal wall clock time zero  :           497450938.608  s.

  FHI-aims created a unique identifier for this run for later identification
  aims_uuid : CEA1AAAB-9C00-43E3-A3D6-10A875948D36

  Build configuration of the current instance of FHI-aims
  -------------------------------------------------------
  FHI-aims version      : 240605
  Commit number         : b001b2e18
  CMake host system     : Linux-6.5.0-41-generic
  CMake version         : 3.22.1
  Fortran compiler      : /opt/intel/oneapi/mpi/2021.12/bin/mpiifort (IntelLLVM) version 2024.1.0
  Fortran compiler flags: -fc=ifx -O3 -ip -fp-model precise
  C compiler            : /opt/intel/oneapi/mpi/2021.12/bin/mpiicc (IntelLLVM) version 2024.1.0
  C compiler flags      : -cc=icx -O3 -ip -fp-model precise -std=gnu99
  C++ compiler          : /opt/intel/oneapi/mpi/2021.12/bin/mpiicpc (IntelLLVM) version 2024.1.0
  C++ compiler flags    : -cxx=icpx -O3 -ip -fp-model precise -std=c++11
  HIP compiler          :
  HIP compiler flags    :
  HIP GPU arch          :
  Using MPI
  Using ScaLAPACK
  Using LibXC
  Using i-PI
  Using RLSY
  Linking against: /opt/intel/oneapi/mkl/2024.1/lib/intel64/libmkl_intel_lp64.so
                   /opt/intel/oneapi/mkl/2024.1/lib/intel64/libmkl_sequential.so
                   /opt/intel/oneapi/mkl/2024.1/lib/intel64/libmkl_core.so
                   /opt/intel/oneapi/mkl/2024.1/lib/intel64/libmkl_blacs_intelmpi_lp64.so
                   /opt/intel/oneapi/mkl/2024.1/lib/intel64/libmkl_scalapack_lp64.so
                   /opt/intel/oneapi/mkl/2024.1/lib/intel64/libmkl_core.so

  Using       32 parallel tasks.
  Task        0 on host RSL-arvutus reporting.
  Task        1 on host RSL-arvutus reporting.
  Task        2 on host RSL-arvutus reporting.
  Task        3 on host RSL-arvutus reporting.
  Task        4 on host RSL-arvutus reporting.
  Task        5 on host RSL-arvutus reporting.
  Task        6 on host RSL-arvutus reporting.
  Task        7 on host RSL-arvutus reporting.
  Task        8 on host RSL-arvutus reporting.
  Task        9 on host RSL-arvutus reporting.
  Task       10 on host RSL-arvutus reporting.
  Task       11 on host RSL-arvutus reporting.
  Task       12 on host RSL-arvutus reporting.
  Task       13 on host RSL-arvutus reporting.
  Task       14 on host RSL-arvutus reporting.
  Task       15 on host RSL-arvutus reporting.
  Task       16 on host RSL-arvutus reporting.
  Task       17 on host RSL-arvutus reporting.
  Task       18 on host RSL-arvutus reporting.
  Task       19 on host RSL-arvutus reporting.
  Task       20 on host RSL-arvutus reporting.
  Task       21 on host RSL-arvutus reporting.
  Task       22 on host RSL-arvutus reporting.
  Task       23 on host RSL-arvutus reporting.
  Task       24 on host RSL-arvutus reporting.
  Task       25 on host RSL-arvutus reporting.
  Task       26 on host RSL-arvutus reporting.
  Task       27 on host RSL-arvutus reporting.
  Task       28 on host RSL-arvutus reporting.
  Task       29 on host RSL-arvutus reporting.
  Task       30 on host RSL-arvutus reporting.
  Task       31 on host RSL-arvutus reporting.

  Memory overcommitment is allowed on your operating system.

  Obtaining array dimensions for all initial allocations:
  
  -----------------------------------------------------------------------
  Parsing control.in (first pass over file, find array dimensions only).
  The contents of control.in will be repeated verbatim below
  unless switched off by setting 'verbatim_writeout .false.' .
  in the first line of control.in .
  -----------------------------------------------------------------------
  
    xc              pbe
    relativistic    atomic_zora scalar
    KS_method	  serial
    k_grid          1 3 1
  
    spin		  collinear
    default_initial_moment	0.0
  
    output          Mulliken
  
  
  ################################################################################
  #
  #  FHI-aims code project
  #  VB, Fritz-Haber Institut, 2009
  #
  #  Suggested "light" defaults for Ti atom (to be pasted into control.in file)
  #  Be sure to double-check any results obtained with these settings for post-processing,
  #  e.g., with the "tight" defaults and larger basis sets.
  #
  ################################################################################
    species        Ti
  #     global species definitions
      nucleus             22
      mass                47.867
  #
      l_hartree           4
  #
      cut_pot             3.5          1.5  1.0
      basis_dep_cutoff    1e-4
  #
      radial_base         48 5.0
      radial_multiplier   1
      angular_grids       specified
        division   0.5171   50
        division   0.9824  110
        division   1.2917  194
        division   1.4940  302
  #      division   1.6934  434
  #      division   1.8425  590
  #      division   2.1901  770
  #      division   2.2896  974
  #      division   2.8244 1202
  #      outer_grid  974
        outer_grid  302
  ################################################################################
  #
  #  Definition of "minimal" basis
  #
  ################################################################################
  #     valence basis states
      valence      4  s   2.
      valence      3  p   6.
      valence      3  d   2.
  #     ion occupancy
      ion_occ      4  s   1.
      ion_occ      3  p   6.
      ion_occ      3  d   1.
  ################################################################################
  #
  #  Suggested additional basis functions. For production calculations,
  #  uncomment them one after another (the most important basis functions are
  #  listed first).
  #
  #  Constructed for dimers: 1.6 A, 1.85 A, 2.5 A, 3.25 A, 4.25 A
  #
  ################################################################################
  #  "First tier" - improvements: -396.25 meV to -19.41 meV
       hydro 4 f 8
       hydro 3 d 2.7
       ionic 4 p auto
  #     hydro 5 g 11.6
       ionic 4 s auto
  #  "Second tier" - improvements: -16.30 meV to -2.03 meV
  #     hydro 3 d 4.4
  #     hydro 6 h 16
  #     hydro 4 f 9.4
  #     hydro 4 p 4.5
  #     hydro 1 s 0.5
  #  "Third tier" - improvements: -6.28 meV to -0.37 meV
  #     hydro 4 d 6.4
  #     hydro 4 f 10
  #     hydro 5 g 12
  #     hydro 2 p 1.7
  #     hydro 6 h 16.4
  #     hydro 4 s 3.8
  #  Further basis functions: -0.45 meV and smaller improvements
  #     hydro 3 d 8.8
  #     hydro 5 p 18
  #     hydro 4 f 22.4
  #     hydro 5 f 7.2  # -0.16 meV
  #     hydro 3 d 2.1  # -0.11 meV
  #     hydro 5 g 7.4  # -0.09 meV
  
  
  ################################################################################
  #
  #  FHI-aims code project
  #  VB, Fritz-Haber Institut, 2009
  #
  #  Suggested "light" defaults for O atom (to be pasted into control.in file)
  #  Be sure to double-check any results obtained with these settings for post-processing,
  #  e.g., with the "tight" defaults and larger basis sets.
  #
  ################################################################################
    species        O
  #     global species definitions
      nucleus             8
      mass                15.9994
  #
      l_hartree           4
  #
      cut_pot             3.5  1.5  1.0
      basis_dep_cutoff    1e-4
  #
      radial_base         36 5.0
      radial_multiplier   1
       angular_grids specified
        division   0.2659   50
        division   0.4451  110
        division   0.6052  194
        division   0.7543  302
  #      division   0.8014  434
  #      division   0.8507  590
  #      division   0.8762  770
  #      division   0.9023  974
  #      division   1.2339 1202
  #      outer_grid 974
        outer_grid 302
  ################################################################################
  #
  #  Definition of "minimal" basis
  #
  ################################################################################
  #     valence basis states
      valence      2  s   2.
      valence      2  p   4.
  #     ion occupancy
      ion_occ      2  s   1.
      ion_occ      2  p   3.
  ################################################################################
  #
  #  Suggested additional basis functions. For production calculations,
  #  uncomment them one after another (the most important basis functions are
  #  listed first).
  #
  #  Constructed for dimers: 1.0 A, 1.208 A, 1.5 A, 2.0 A, 3.0 A
  #
  ################################################################################
  #  "First tier" - improvements: -699.05 meV to -159.38 meV
       hydro 2 p 1.8
       hydro 3 d 7.6
       hydro 3 s 6.4
  #  "Second tier" - improvements: -49.91 meV to -5.39 meV
  #     hydro 4 f 11.6
  #     hydro 3 p 6.2
  #     hydro 3 d 5.6
  #     hydro 5 g 17.6
  #     hydro 1 s 0.75
  #  "Third tier" - improvements: -2.83 meV to -0.50 meV
  #     ionic 2 p auto
  #     hydro 4 f 10.8
  #     hydro 4 d 4.7
  #     hydro 2 s 6.8
  #  "Fourth tier" - improvements: -0.40 meV to -0.12 meV
  #     hydro 3 p 5
  #     hydro 3 s 3.3
  #     hydro 5 g 15.6
  #     hydro 4 f 17.6
  #     hydro 4 d 14
  # Further basis functions - -0.08 meV and below
  #     hydro 3 s 2.1
  #     hydro 4 d 11.6
  #     hydro 3 p 16
  #     hydro 2 s 17.2
  
  ################################################################################
  #
  #  "Core" basis functions and numerical settings for O atom.
  #  Based on “tight” defaults (V. Blum, 2009).
  #
  ################################################################################
    species        O1
  #     global species definitions
      nucleus             8.
      mass                15.9994
  #
      l_hartree           6
  #
      cut_pot             4.0  2.0  1.0
      basis_dep_cutoff    1e-4
  #
      radial_base         36 7.0
      radial_multiplier   2
       angular_grids specified
        division   0.1817   50
        division   0.3417  110
        division   0.4949  194
        division   0.6251  302
        division   0.8014  434
  #      division   0.8507  590
  #      division   0.8762  770
  #      division   0.9023  974
  #      division   1.2339 1202
  #      outer_grid 974
        outer_grid  434
  ################################################################################
  #
  #  Definition of "minimal" basis
  #
  ################################################################################
  #     valence basis states
      valence      2  s   2.
      valence      2  p   4.
  #     ion occupancy
      ion_occ      2  s   1.
      ion_occ      2  p   3.
  ################################################################################
  #
  #  Suggested additional basis functions. For production calculations,
  #  uncomment them one after another (the most important basis functions are
  #  listed first).
  #
  #  Constructed for dimers: 1.0 A, 1.208 A, 1.5 A, 2.0 A, 3.0 A
  #
  ################################################################################
  #  "First tier" - improvements: -699.05 meV to -159.38 meV
       hydro 2 p 1.8
       hydro 3 d 7.6
       hydro 3 s 6.4
  #  "Second tier" - improvements: -49.91 meV to -5.39 meV
       hydro 4 f 11.6
       hydro 3 p 6.2
       hydro 3 d 5.6
       hydro 5 g 17.6
       hydro 1 s 0.75
  #  "Third tier" - improvements: -2.83 meV to -0.50 meV
       ionic 2 p auto
       hydro 4 f 10.8
       hydro 4 d 4.7
       hydro 2 s 6.8
  #  "Fourth tier" - improvements: -0.40 meV to -0.12 meV
  #     hydro 3 p 5
  #     hydro 3 s 3.3
  #     hydro 5 g 15.6
  #     hydro 4 f 17.6
  #     hydro 4 d 14
  # Further basis functions - -0.08 meV and below
  #     hydro 3 s 2.1
  #     hydro 4 d 11.6
  #     hydro 3 p 16
  #     hydro 2 s 17.2
  
  # Additional basis functions for atom with a core hole
       hydro 1 s 12.0
       hydro 1 s 10.0
       hydro 1 s 6.0
       hydro 2 s 10.0
       hydro 2 p 8.0
       hydro 2 p 6.0
       hydro 3 d 8.0
  
  -----------------------------------------------------------------------
  Completed first pass over input file control.in .
  -----------------------------------------------------------------------
  
  
  -----------------------------------------------------------------------
  Parsing geometry.in (first pass over file, find array dimensions only).
  The contents of geometry.in will be repeated verbatim below
  unless switched off by setting 'verbatim_writeout .false.' .
  in the first line of geometry.in .
  -----------------------------------------------------------------------
  
  lattice_vector 19.698380 0.000000 0.000000
  lattice_vector 0.000000 8.918648 0.000000
  lattice_vector 0.000000 0.000000 63.422645
  
  atom 19.698379 0.000000 22.500000 Ti
  atom 3.283063 1.486441 22.500000 Ti
  atom 1.276729 1.486441 22.500029 O
  atom 3.283086 0.000000 23.776767 O
  atom 6.566086 0.000000 24.506468 O
  atom 2.006317 1.486441 25.783206 O
  atom 3.283046 0.000000 25.783235 Ti
  atom 6.566109 1.486441 25.783235 Ti
  atom 4.559775 1.486441 25.783265 O
  atom 0.000005 0.000000 27.060002 O
  atom 3.283006 0.000000 27.789704 O
  atom 5.289362 1.486441 29.066441 O
  atom 6.566091 0.000000 29.066471 Ti
  atom 3.283028 1.486441 29.066471 Ti
  atom 1.276694 1.486441 29.066500 O
  atom 3.283051 0.000000 30.343237 O
  atom 6.566051 0.000000 31.072939 O
  atom 2.006281 1.486441 32.349676 O
  atom 3.283010 0.000000 32.349706 Ti
  atom 6.566074 1.486441 32.349706 Ti
  atom 4.559740 1.486441 32.349735 O
  atom 6.566096 0.000000 33.626473 O
  atom 3.282970 0.000000 34.356174 O
  atom 5.289327 1.486441 35.632912 O
  atom 6.566056 0.000000 35.632941 Ti
  atom 3.282993 1.486441 35.632941 Ti
  atom 1.276659 1.486441 35.632970 O
  atom 3.283015 0.000000 36.909708 O
  atom 6.566016 0.000000 37.639409 O
  atom 2.006246 1.486441 38.916147 O
  atom 3.282975 0.000000 38.916176 Ti
  atom 6.566039 1.486441 38.916176 Ti
  atom 4.559704 1.486441 38.916206 O
  atom 6.566061 0.000000 40.192943 O
  atom 3.282935 0.000000 40.922645 O
  atom 19.698379 2.972883 22.500000 Ti
  atom 3.283063 4.459324 22.500000 Ti
  atom 1.276729 4.459324 22.500029 O
  atom 3.283086 2.972883 23.776767 O
  atom 6.566086 2.972883 24.506468 O
  atom 2.006317 4.459324 25.783206 O
  atom 3.283046 2.972883 25.783235 Ti
  atom 6.566109 4.459324 25.783235 Ti
  atom 4.559775 4.459324 25.783265 O
  atom 0.000005 2.972883 27.060002 O
  atom 3.283006 2.972883 27.789704 O
  atom 5.289362 4.459324 29.066441 O
  atom 6.566091 2.972883 29.066471 Ti
  atom 3.283028 4.459324 29.066471 Ti
  atom 1.276694 4.459324 29.066500 O
  atom 3.283051 2.972883 30.343237 O
  atom 6.566051 2.972883 31.072939 O
  atom 2.006281 4.459324 32.349676 O
  atom 3.283010 2.972883 32.349706 Ti
  atom 6.566074 4.459324 32.349706 Ti
  atom 4.559740 4.459324 32.349735 O
  atom 6.566096 2.972883 33.626473 O
  atom 3.282970 2.972883 34.356174 O
  atom 5.289327 4.459324 35.632912 O
  atom 6.566056 2.972883 35.632941 Ti
  atom 3.282993 4.459324 35.632941 Ti
  atom 1.276659 4.459324 35.632970 O
  atom 3.283015 2.972883 36.909708 O
  atom 6.566016 2.972883 37.639409 O
  atom 2.006246 4.459324 38.916147 O
  atom 3.282975 2.972883 38.916176 Ti
  atom 6.566039 4.459324 38.916176 Ti
  atom 4.559704 4.459324 38.916206 O
  atom 6.566061 2.972883 40.192943 O
  atom 3.282935 2.972883 40.922645 O
  atom 19.698379 5.945765 22.500000 Ti
  atom 3.283063 7.432207 22.500000 Ti
  atom 1.276729 7.432207 22.500029 O
  atom 3.283086 5.945765 23.776767 O
  atom 6.566086 5.945765 24.506468 O
  atom 2.006317 7.432207 25.783206 O
  atom 3.283046 5.945765 25.783235 Ti
  atom 6.566109 7.432207 25.783235 Ti
  atom 4.559775 7.432207 25.783265 O
  atom 0.000005 5.945765 27.060002 O
  atom 3.283006 5.945765 27.789704 O
  atom 5.289362 7.432207 29.066441 O
  atom 6.566091 5.945765 29.066471 Ti
  atom 3.283028 7.432207 29.066471 Ti
  atom 1.276694 7.432207 29.066500 O
  atom 3.283051 5.945765 30.343237 O
  atom 6.566051 5.945765 31.072939 O
  atom 2.006281 7.432207 32.349676 O
  atom 3.283010 5.945765 32.349706 Ti
  atom 6.566074 7.432207 32.349706 Ti
  atom 4.559740 7.432207 32.349735 O
  atom 6.566096 5.945765 33.626473 O
  atom 3.282970 5.945765 34.356174 O
  atom 5.289327 7.432207 35.632912 O
  atom 6.566056 5.945765 35.632941 Ti
  atom 3.282993 7.432207 35.632941 Ti
  atom 1.276659 7.432207 35.632970 O
  atom 3.283015 5.945765 36.909708 O
  atom 6.566016 5.945765 37.639409 O
  atom 2.006246 7.432207 38.916147 O
  atom 3.282975 5.945765 38.916176 Ti
  atom 6.566039 7.432207 38.916176 Ti
  atom 4.559704 7.432207 38.916206 O
  atom 6.566061 5.945765 40.192943 O
  atom 3.282935 5.945765 40.922645 O
  atom 6.566126 0.000000 22.500000 Ti
  atom 9.849190 1.486441 22.500000 Ti
  atom 7.842856 1.486441 22.500029 O
  atom 9.849212 0.000000 23.776767 O
  atom 13.132213 0.000000 24.506468 O
  atom 8.572443 1.486441 25.783206 O
  atom 9.849172 0.000000 25.783235 Ti
  atom 13.132235 1.486441 25.783235 Ti
  atom 11.125901 1.486441 25.783265 O
  atom 6.566131 0.000000 27.060002 O
  atom 9.849132 0.000000 27.789704 O
  atom 11.855489 1.486441 29.066441 O
  atom 13.132218 0.000000 29.066471 Ti
  atom 9.849155 1.486441 29.066471 Ti
  atom 7.842820 1.486441 29.066500 O
  atom 9.849177 0.000000 30.343237 O
  atom 13.132178 0.000000 31.072939 O
  atom 8.572408 1.486441 32.349676 O
  atom 9.849137 0.000000 32.349706 Ti
  atom 13.132200 1.486441 32.349706 Ti
  atom 11.125866 1.486441 32.349735 O
  atom 13.132223 0.000000 33.626473 O
  atom 9.849097 0.000000 34.356174 O
  atom 11.855454 1.486441 35.632912 O
  atom 13.132183 0.000000 35.632941 Ti
  atom 9.849119 1.486441 35.632941 Ti
  atom 7.842785 1.486441 35.632970 O
  atom 9.849142 0.000000 36.909708 O
  atom 13.132143 0.000000 37.639409 O
  atom 8.572373 1.486441 38.916147 O
  atom 9.849102 0.000000 38.916176 Ti
  atom 13.132165 1.486441 38.916176 Ti
  atom 11.125831 1.486441 38.916206 O
  atom 13.132188 0.000000 40.192943 O
  atom 9.849062 0.000000 40.922645 O
  atom 6.566126 2.972883 22.500000 Ti
  atom 9.849190 4.459324 22.500000 Ti
  atom 7.842856 4.459324 22.500029 O
  atom 9.849212 2.972883 23.776767 O
  atom 13.132213 2.972883 24.506468 O
  atom 8.572443 4.459324 25.783206 O
  atom 9.849172 2.972883 25.783235 Ti
  atom 13.132235 4.459324 25.783235 Ti
  atom 11.125901 4.459324 25.783265 O
  atom 6.566131 2.972883 27.060002 O
  atom 9.849132 2.972883 27.789704 O
  atom 11.855489 4.459324 29.066441 O
  atom 13.132218 2.972883 29.066471 Ti
  atom 9.849155 4.459324 29.066471 Ti
  atom 7.842820 4.459324 29.066500 O
  atom 9.849177 2.972883 30.343237 O
  atom 13.132178 2.972883 31.072939 O
  atom 8.572408 4.459324 32.349676 O
  atom 9.849137 2.972883 32.349706 Ti
  atom 13.132200 4.459324 32.349706 Ti
  atom 11.125866 4.459324 32.349735 O
  atom 13.132223 2.972883 33.626473 O
  atom 9.849097 2.972883 34.356174 O
  atom 11.855454 4.459324 35.632912 O
  atom 13.132183 2.972883 35.632941 Ti
  atom 9.849119 4.459324 35.632941 Ti
  atom 7.842785 4.459324 35.632970 O
  atom 9.849142 2.972883 36.909708 O
  atom 13.132143 2.972883 37.639409 O
  atom 8.572373 4.459324 38.916147 O
  atom 9.849102 2.972883 38.916176 Ti
  atom 13.132165 4.459324 38.916176 Ti
  atom 11.125831 4.459324 38.916206 O
  atom 13.132188 2.972883 40.192943 O
  atom 9.849062 2.972883 40.922645 O
  atom 6.566126 5.945765 22.500000 Ti
  atom 9.849190 7.432207 22.500000 Ti
  atom 7.842856 7.432207 22.500029 O
  atom 9.849212 5.945765 23.776767 O
  atom 13.132213 5.945765 24.506468 O
  atom 8.572443 7.432207 25.783206 O
  atom 9.849172 5.945765 25.783235 Ti
  atom 13.132235 7.432207 25.783235 Ti
  atom 11.125901 7.432207 25.783265 O
  atom 6.566131 5.945765 27.060002 O
  atom 9.849132 5.945765 27.789704 O
  atom 11.855489 7.432207 29.066441 O
  atom 13.132218 5.945765 29.066471 Ti
  atom 9.849155 7.432207 29.066471 Ti
  atom 7.842820 7.432207 29.066500 O
  atom 9.849177 5.945765 30.343237 O
  atom 13.132178 5.945765 31.072939 O
  atom 8.572408 7.432207 32.349676 O
  atom 9.849137 5.945765 32.349706 Ti
  atom 13.132200 7.432207 32.349706 Ti
  atom 11.125866 7.432207 32.349735 O
  atom 13.132223 5.945765 33.626473 O
  atom 9.849097 5.945765 34.356174 O
  atom 11.855454 7.432207 35.632912 O
  atom 13.132183 5.945765 35.632941 Ti
  atom 9.849119 7.432207 35.632941 Ti
  atom 7.842785 7.432207 35.632970 O
  atom 9.849142 5.945765 36.909708 O
  atom 13.132143 5.945765 37.639409 O
  atom 8.572373 7.432207 38.916147 O
  atom 9.849102 5.945765 38.916176 Ti
  atom 13.132165 7.432207 38.916176 Ti
  atom 11.125831 7.432207 38.916206 O
  atom 13.132188 5.945765 40.192943 O
  atom 9.849062 5.945765 40.922645 O
  atom 13.132253 0.000000 22.500000 Ti
  atom 16.415316 1.486441 22.500000 Ti
  atom 14.408982 1.486441 22.500029 O
  atom 16.415339 0.000000 23.776767 O
  atom 19.698339 0.000000 24.506468 O
  atom 15.138570 1.486441 25.783206 O
  atom 16.415299 0.000000 25.783235 Ti
  atom 19.698362 1.486441 25.783235 Ti
  atom 17.692028 1.486441 25.783265 O
  atom 13.132258 0.000000 27.060002 O
  atom 16.415259 0.000000 27.789704 O
  atom 18.421615 1.486441 29.066441 O
  atom 19.698344 0.000000 29.066471 Ti
  atom 16.415281 1.486441 29.066471 Ti
  atom 14.408947 1.486441 29.066500 O
  atom 16.415304 0.000000 30.343237 O
  atom 19.698304 0.000000 31.072939 O
  atom 15.138534 1.486441 32.349676 O
  atom 16.415263 0.000000 32.349706 Ti
  atom 19.698327 1.486441 32.349706 Ti
  atom 17.691993 1.486441 32.349735 O
  atom 19.698349 0.000000 33.626473 O
  atom 16.415223 0.000000 34.356174 O
  atom 18.421580 1.486441 35.632912 O
  atom 19.698309 0.000000 35.632941 Ti
  atom 16.415246 1.486441 35.632941 Ti
  atom 14.408912 1.486441 35.632970 O
  atom 16.415268 0.000000 36.909708 O
  atom 19.698269 0.000000 37.639409 O
  atom 15.138499 1.486441 38.916147 O
  atom 16.415228 0.000000 38.916176 Ti
  atom 19.698292 1.486441 38.916176 Ti
  atom 17.691957 1.486441 38.916206 O
  atom 19.698314 0.000000 40.192943 O
  atom 16.415188 0.000000 40.922645 O
  atom 13.132253 2.972883 22.500000 Ti
  atom 16.415316 4.459324 22.500000 Ti
  atom 14.408982 4.459324 22.500029 O
  atom 16.415339 2.972883 23.776767 O
  atom 19.698339 2.972883 24.506468 O
  atom 15.138570 4.459324 25.783206 O
  atom 16.415299 2.972883 25.783235 Ti
  atom 19.698362 4.459324 25.783235 Ti
  atom 17.692028 4.459324 25.783265 O
  atom 13.132258 2.972883 27.060002 O
  atom 16.415259 2.972883 27.789704 O
  atom 18.421615 4.459324 29.066441 O
  atom 19.698344 2.972883 29.066471 Ti
  atom 16.415281 4.459324 29.066471 Ti
  atom 14.408947 4.459324 29.066500 O
  atom 16.415304 2.972883 30.343237 O
  atom 19.698304 2.972883 31.072939 O
  atom 15.138534 4.459324 32.349676 O
  atom 16.415263 2.972883 32.349706 Ti
  atom 19.698327 4.459324 32.349706 Ti
  atom 17.691993 4.459324 32.349735 O
  atom 19.698349 2.972883 33.626473 O
  atom 16.415223 2.972883 34.356174 O
  atom 18.421580 4.459324 35.632912 O
  atom 19.698309 2.972883 35.632941 Ti
  atom 16.415246 4.459324 35.632941 Ti
  atom 14.408912 4.459324 35.632970 O
  atom 16.415268 2.972883 36.909708 O
  atom 19.698269 2.972883 37.639409 O
  atom 15.138499 4.459324 38.916147 O
  atom 16.415228 2.972883 38.916176 Ti
  atom 19.698292 4.459324 38.916176 Ti
  atom 17.691957 4.459324 38.916206 O
  atom 19.698314 2.972883 40.192943 O
  atom 16.415188 2.972883 40.922645 O
  atom 13.132253 5.945765 22.500000 Ti
  atom 16.415316 7.432207 22.500000 Ti
  atom 14.408982 7.432207 22.500029 O
  atom 16.415339 5.945765 23.776767 O
  atom 19.698339 5.945765 24.506468 O
  atom 15.138570 7.432207 25.783206 O
  atom 16.415299 5.945765 25.783235 Ti
  atom 19.698362 7.432207 25.783235 Ti
  atom 17.692028 7.432207 25.783265 O
  atom 13.132258 5.945765 27.060002 O
  atom 16.415259 5.945765 27.789704 O
  atom 18.421615 7.432207 29.066441 O
  atom 19.698344 5.945765 29.066471 Ti
  atom 16.415281 7.432207 29.066471 Ti
  atom 14.408947 7.432207 29.066500 O
  atom 16.415304 5.945765 30.343237 O
  atom 19.698304 5.945765 31.072939 O
  atom 15.138534 7.432207 32.349676 O
  atom 16.415263 5.945765 32.349706 Ti
  atom 19.698327 7.432207 32.349706 Ti
  atom 17.691993 7.432207 32.349735 O
  atom 19.698349 5.945765 33.626473 O
  atom 16.415223 5.945765 34.356174 O
  atom 18.421580 7.432207 35.632912 O
  atom 19.698309 5.945765 35.632941 Ti
  atom 16.415246 7.432207 35.632941 Ti
  atom 14.408912 7.432207 35.632970 O
  atom 16.415268 5.945765 36.909708 O
  atom 19.698269 5.945765 37.639409 O
  atom 15.138499 7.432207 38.916147 O
  atom 16.415228 5.945765 38.916176 Ti
  atom 19.698292 7.432207 38.916176 Ti
  atom 17.691957 7.432207 38.916206 O
  atom 19.698314 5.945765 40.192943 O
  atom 16.415188 5.945765 40.922645 O
  
  -----------------------------------------------------------------------
  Completed first pass over input file geometry.in .
  -----------------------------------------------------------------------
  

  Basic array size parameters:
  | Number of species                 :        3
  | Number of atoms                   :      315
  | Number of lattice vectors         :        3
  | Max. basis fn. angular momentum   :        4
  | Max. atomic/ionic basis occupied n:        4
  | Max. number of basis fn. types    :        3
  | Max. radial fns per species/type  :       18
  | Max. logarithmic grid size        :     1383
  | Max. radial integration grid size :       73
  | Max. angular integration grid size:      434
  | Max. angular grid division number :        8
  | Radial grid for Hartree potential :     1383
  | Number of spin channels           :        2

------------------------------------------------------------
          Reading file control.in.
------------------------------------------------------------
  XC: Using PBE gradient-corrected functionals.
  Scalar relativistic treatment of kinetic energy: on-site free-atom approximation to ZORA.
  Kohn-Sham eigenvalues and eigenfunctions calculated by LAPACK via ELSI.
  Found k-point grid:         1         3         1
  Spin treatment: Spin density functional theory - collinear spins.
  Initial spin moment per atom:   0.0000
  Mulliken charge analysis will be performed and summarised to the main output.
  Full Mulliken charge analysis will be written to file 'Mulliken.out'.
 
  Reading configuration options for species Ti                  .
  | Found nuclear charge :  22.0000
  | Found atomic mass :    47.8670000000000      amu
  | Found l_max for Hartree potential  :   4
  | Found cutoff potl. onset [A], width [A], scale factor :    3.50000    1.50000    1.00000
  | Threshold for basis-dependent cutoff potential is   0.100000E-03
  | Found data for basic radial integration grid :    48 points, outermost radius =    5.000 A
  | Found multiplier for basic radial grid :   1
  | Found angular grid specification: user-specified.
  | Specified grid contains     5 separate shells.
  | Check grid settings after all constraints further below.
  | Found free-atom valence shell :  4 s   2.000
  | Found free-atom valence shell :  3 p   6.000
  | Found free-atom valence shell :  3 d   2.000
  | Found free-ion valence shell :  4 s   1.000
  | Found free-ion valence shell :  3 p   6.000
  | Found free-ion valence shell :  3 d   1.000
  | Found hydrogenic basis function :  4 f   8.000
  | Found hydrogenic basis function :  3 d   2.700
  | Found ionic basis function :  4 p , default cutoff radius.
  | Found ionic basis function :  4 s , default cutoff radius.
 | Encountered keyword species, ending the description of species Ti                  .
  Species Ti                  : Missing cutoff potential type.
  Defaulting to exp(1/x)/(1-x)^2 type cutoff potential.
  Species Ti: No 'logarithmic' tag. Using default grid for free atom:
  | Default logarithmic grid data [bohr] : 0.1000E-03 0.1000E+03 0.1012E+01
  | Will include ionic basis functions of  2.0-fold positive Ti                   ion.
  Species Ti: On-site basis accuracy parameter (for Gram-Schmidt orthonormalisation) not specified.
  Using default value basis_acc =  0.1000000E-03.
  Species Ti                  : Using default innermost maximum threshold i_radial=  2 for radial functions.
  Species Ti                  : Default cutoff onset for free atom density etc. : 0.35000000E+01 AA.
  Species Ti                  : Basic radial grid will be enhanced according to radial_multiplier =   1, to contain    48 grid points.
 
  Reading configuration options for species O                   .
  | Found nuclear charge :   8.0000
  | Found atomic mass :    15.9994000000000      amu
  | Found l_max for Hartree potential  :   4
  | Found cutoff potl. onset [A], width [A], scale factor :    3.50000    1.50000    1.00000
  | Threshold for basis-dependent cutoff potential is   0.100000E-03
  | Found data for basic radial integration grid :    36 points, outermost radius =    5.000 A
  | Found multiplier for basic radial grid :   1
  | Found angular grid specification: user-specified.
  | Specified grid contains     5 separate shells.
  | Check grid settings after all constraints further below.
  | Found free-atom valence shell :  2 s   2.000
  | Found free-atom valence shell :  2 p   4.000
  | Found free-ion valence shell :  2 s   1.000
  | Found free-ion valence shell :  2 p   3.000
  | Found hydrogenic basis function :  2 p   1.800
  | Found hydrogenic basis function :  3 d   7.600
  | Found hydrogenic basis function :  3 s   6.400
 | Encountered keyword species, ending the description of species O                   .
  Species O                   : Missing cutoff potential type.
  Defaulting to exp(1/x)/(1-x)^2 type cutoff potential.
  Species O : No 'logarithmic' tag. Using default grid for free atom:
  | Default logarithmic grid data [bohr] : 0.1000E-03 0.1000E+03 0.1012E+01
  Species O : On-site basis accuracy parameter (for Gram-Schmidt orthonormalisation) not specified.
  Using default value basis_acc =  0.1000000E-03.
  Species O                   : Using default innermost maximum threshold i_radial=  2 for radial functions.
  Species O                   : Default cutoff onset for free atom density etc. : 0.35000000E+01 AA.
  Species O                   : Basic radial grid will be enhanced according to radial_multiplier =   1, to contain    36 grid points.
 
  Reading configuration options for species O1                  .
  | Found nuclear charge :   8.0000
  | Found atomic mass :    15.9994000000000      amu
  | Found l_max for Hartree potential  :   6
  | Found cutoff potl. onset [A], width [A], scale factor :    4.00000    2.00000    1.00000
  | Threshold for basis-dependent cutoff potential is   0.100000E-03
  | Found data for basic radial integration grid :    36 points, outermost radius =    7.000 A
  | Found multiplier for basic radial grid :   2
  | Found angular grid specification: user-specified.
  | Specified grid contains     6 separate shells.
  | Check grid settings after all constraints further below.
  | Found free-atom valence shell :  2 s   2.000
  | Found free-atom valence shell :  2 p   4.000
  | Found free-ion valence shell :  2 s   1.000
  | Found free-ion valence shell :  2 p   3.000
  | Found hydrogenic basis function :  2 p   1.800
  | Found hydrogenic basis function :  3 d   7.600
  | Found hydrogenic basis function :  3 s   6.400
  | Found hydrogenic basis function :  4 f  11.600
  | Found hydrogenic basis function :  3 p   6.200
  | Found hydrogenic basis function :  3 d   5.600
  | Found hydrogenic basis function :  5 g  17.600
  | Found hydrogenic basis function :  1 s   0.750
  | Found ionic basis function :  2 p , default cutoff radius.
  | Found hydrogenic basis function :  4 f  10.800
  | Found hydrogenic basis function :  4 d   4.700
  | Found hydrogenic basis function :  2 s   6.800
  | Found hydrogenic basis function :  1 s  12.000
  | Found hydrogenic basis function :  1 s  10.000
  | Found hydrogenic basis function :  1 s   6.000
  | Found hydrogenic basis function :  2 s  10.000
  | Found hydrogenic basis function :  2 p   8.000
  | Found hydrogenic basis function :  2 p   6.000
  | Found hydrogenic basis function :  3 d   8.000
  Species O1                  : Missing cutoff potential type.
  Defaulting to exp(1/x)/(1-x)^2 type cutoff potential.
  Species O1: No 'logarithmic' tag. Using default grid for free atom:
  | Default logarithmic grid data [bohr] : 0.1000E-03 0.1000E+03 0.1012E+01
  | Will include ionic basis functions of  2.0-fold positive O1                   ion.
  Species O1: On-site basis accuracy parameter (for Gram-Schmidt orthonormalisation) not specified.
  Using default value basis_acc =  0.1000000E-03.
  Species O1                  : Using default innermost maximum threshold i_radial=  2 for radial functions.
  Species O1                  : Default cutoff onset for free atom density etc. : 0.40000000E+01 AA.
  Species O1                  : Basic radial grid will be enhanced according to radial_multiplier =   2, to contain    73 grid points.
 
  Finished reading input file 'control.in'.
 
------------------------------------------------------------


------------------------------------------------------------
          Reading geometry description geometry.in.
------------------------------------------------------------
  | The smallest distance between any two atoms is         1.95947539 AA.
  | The first atom of this pair is atom number                    130 .
  | The second atom of this pair is atom number                   199 .
  | Wigner-Seitz cell of the first atom image           0     0     0 .
  | (The Wigner-Seitz cell of the second atom is 0 0 0  by definition.)

  Symmetry information by spglib:
  | Precision set to  0.1E-04
  | Number of Operations  : 18
  | Space group           : 6
  | International         : Pm      /op
  | Schoenflies           : Cs^1
  Input structure read successfully.
  The structure contains      315 atoms,  and a total of       4032.000 electrons.

  Input geometry:
  | Unit cell:
  |       19.69838000        0.00000000        0.00000000
  |        0.00000000        8.91864800        0.00000000
  |        0.00000000        0.00000000       63.42264500
  | Atomic structure:
  |       Atom                x [A]            y [A]            z [A]
  |    1: Species Ti           19.69837900        0.00000000       22.50000000
  |    2: Species Ti            3.28306300        1.48644100       22.50000000
  |    3: Species O             1.27672900        1.48644100       22.50002900
  |    4: Species O             3.28308600        0.00000000       23.77676700
  |    5: Species O             6.56608600        0.00000000       24.50646800
  |    6: Species O             2.00631700        1.48644100       25.78320600
  |    7: Species Ti            3.28304600        0.00000000       25.78323500
  |    8: Species Ti            6.56610900        1.48644100       25.78323500
  |    9: Species O             4.55977500        1.48644100       25.78326500
  |   10: Species O             0.00000500        0.00000000       27.06000200
  |   11: Species O             3.28300600        0.00000000       27.78970400
  |   12: Species O             5.28936200        1.48644100       29.06644100
  |   13: Species Ti            6.56609100        0.00000000       29.06647100
  |   14: Species Ti            3.28302800        1.48644100       29.06647100
  |   15: Species O             1.27669400        1.48644100       29.06650000
  |   16: Species O             3.28305100        0.00000000       30.34323700
  |   17: Species O             6.56605100        0.00000000       31.07293900
  |   18: Species O             2.00628100        1.48644100       32.34967600
  |   19: Species Ti            3.28301000        0.00000000       32.34970600
  |   20: Species Ti            6.56607400        1.48644100       32.34970600
  |   21: Species O             4.55974000        1.48644100       32.34973500
  |   22: Species O             6.56609600        0.00000000       33.62647300
  |   23: Species O             3.28297000        0.00000000       34.35617400
  |   24: Species O             5.28932700        1.48644100       35.63291200
  |   25: Species Ti            6.56605600        0.00000000       35.63294100
  |   26: Species Ti            3.28299300        1.48644100       35.63294100
  |   27: Species O             1.27665900        1.48644100       35.63297000
  |   28: Species O             3.28301500        0.00000000       36.90970800
  |   29: Species O             6.56601600        0.00000000       37.63940900
  |   30: Species O             2.00624600        1.48644100       38.91614700
  |   31: Species Ti            3.28297500        0.00000000       38.91617600
  |   32: Species Ti            6.56603900        1.48644100       38.91617600
  |   33: Species O             4.55970400        1.48644100       38.91620600
  |   34: Species O             6.56606100        0.00000000       40.19294300
  |   35: Species O             3.28293500        0.00000000       40.92264500
  |   36: Species Ti           19.69837900        2.97288300       22.50000000
  |   37: Species Ti            3.28306300        4.45932400       22.50000000
  |   38: Species O             1.27672900        4.45932400       22.50002900
  |   39: Species O             3.28308600        2.97288300       23.77676700
  |   40: Species O             6.56608600        2.97288300       24.50646800
  |   41: Species O             2.00631700        4.45932400       25.78320600
  |   42: Species Ti            3.28304600        2.97288300       25.78323500
  |   43: Species Ti            6.56610900        4.45932400       25.78323500
  |   44: Species O             4.55977500        4.45932400       25.78326500
  |   45: Species O             0.00000500        2.97288300       27.06000200
  |   46: Species O             3.28300600        2.97288300       27.78970400
  |   47: Species O             5.28936200        4.45932400       29.06644100
  |   48: Species Ti            6.56609100        2.97288300       29.06647100
  |   49: Species Ti            3.28302800        4.45932400       29.06647100
  |   50: Species O             1.27669400        4.45932400       29.06650000
  |   51: Species O             3.28305100        2.97288300       30.34323700
  |   52: Species O             6.56605100        2.97288300       31.07293900
  |   53: Species O             2.00628100        4.45932400       32.34967600
  |   54: Species Ti            3.28301000        2.97288300       32.34970600
  |   55: Species Ti            6.56607400        4.45932400       32.34970600
  |   56: Species O             4.55974000        4.45932400       32.34973500
  |   57: Species O             6.56609600        2.97288300       33.62647300
  |   58: Species O             3.28297000        2.97288300       34.35617400
  |   59: Species O             5.28932700        4.45932400       35.63291200
  |   60: Species Ti            6.56605600        2.97288300       35.63294100
  |   61: Species Ti            3.28299300        4.45932400       35.63294100
  |   62: Species O             1.27665900        4.45932400       35.63297000
  |   63: Species O             3.28301500        2.97288300       36.90970800
  |   64: Species O             6.56601600        2.97288300       37.63940900
  |   65: Species O             2.00624600        4.45932400       38.91614700
  |   66: Species Ti            3.28297500        2.97288300       38.91617600
  |   67: Species Ti            6.56603900        4.45932400       38.91617600
  |   68: Species O             4.55970400        4.45932400       38.91620600
  |   69: Species O             6.56606100        2.97288300       40.19294300
  |   70: Species O             3.28293500        2.97288300       40.92264500
  |   71: Species Ti           19.69837900        5.94576500       22.50000000
  |   72: Species Ti            3.28306300        7.43220700       22.50000000
  |   73: Species O             1.27672900        7.43220700       22.50002900
  |   74: Species O             3.28308600        5.94576500       23.77676700
  |   75: Species O             6.56608600        5.94576500       24.50646800
  |   76: Species O             2.00631700        7.43220700       25.78320600
  |   77: Species Ti            3.28304600        5.94576500       25.78323500
  |   78: Species Ti            6.56610900        7.43220700       25.78323500
  |   79: Species O             4.55977500        7.43220700       25.78326500
  |   80: Species O             0.00000500        5.94576500       27.06000200
  |   81: Species O             3.28300600        5.94576500       27.78970400
  |   82: Species O             5.28936200        7.43220700       29.06644100
  |   83: Species Ti            6.56609100        5.94576500       29.06647100
  |   84: Species Ti            3.28302800        7.43220700       29.06647100
  |   85: Species O             1.27669400        7.43220700       29.06650000
  |   86: Species O             3.28305100        5.94576500       30.34323700
  |   87: Species O             6.56605100        5.94576500       31.07293900
  |   88: Species O             2.00628100        7.43220700       32.34967600
  |   89: Species Ti            3.28301000        5.94576500       32.34970600
  |   90: Species Ti            6.56607400        7.43220700       32.34970600
  |   91: Species O             4.55974000        7.43220700       32.34973500
  |   92: Species O             6.56609600        5.94576500       33.62647300
  |   93: Species O             3.28297000        5.94576500       34.35617400
  |   94: Species O             5.28932700        7.43220700       35.63291200
  |   95: Species Ti            6.56605600        5.94576500       35.63294100
  |   96: Species Ti            3.28299300        7.43220700       35.63294100
  |   97: Species O             1.27665900        7.43220700       35.63297000
  |   98: Species O             3.28301500        5.94576500       36.90970800
  |   99: Species O             6.56601600        5.94576500       37.63940900
  |  100: Species O             2.00624600        7.43220700       38.91614700
  |  101: Species Ti            3.28297500        5.94576500       38.91617600
  |  102: Species Ti            6.56603900        7.43220700       38.91617600
  |  103: Species O             4.55970400        7.43220700       38.91620600
  |  104: Species O             6.56606100        5.94576500       40.19294300
  |  105: Species O             3.28293500        5.94576500       40.92264500
  |  106: Species Ti            6.56612600        0.00000000       22.50000000
  |  107: Species Ti            9.84919000        1.48644100       22.50000000
  |  108: Species O             7.84285600        1.48644100       22.50002900
  |  109: Species O             9.84921200        0.00000000       23.77676700
  |  110: Species O            13.13221300        0.00000000       24.50646800
  |  111: Species O             8.57244300        1.48644100       25.78320600
  |  112: Species Ti            9.84917200        0.00000000       25.78323500
  |  113: Species Ti           13.13223500        1.48644100       25.78323500
  |  114: Species O            11.12590100        1.48644100       25.78326500
  |  115: Species O             6.56613100        0.00000000       27.06000200
  |  116: Species O             9.84913200        0.00000000       27.78970400
  |  117: Species O            11.85548900        1.48644100       29.06644100
  |  118: Species Ti           13.13221800        0.00000000       29.06647100
  |  119: Species Ti            9.84915500        1.48644100       29.06647100
  |  120: Species O             7.84282000        1.48644100       29.06650000
  |  121: Species O             9.84917700        0.00000000       30.34323700
  |  122: Species O            13.13217800        0.00000000       31.07293900
  |  123: Species O             8.57240800        1.48644100       32.34967600
  |  124: Species Ti            9.84913700        0.00000000       32.34970600
  |  125: Species Ti           13.13220000        1.48644100       32.34970600
  |  126: Species O            11.12586600        1.48644100       32.34973500
  |  127: Species O            13.13222300        0.00000000       33.62647300
  |  128: Species O             9.84909700        0.00000000       34.35617400
  |  129: Species O            11.85545400        1.48644100       35.63291200
  |  130: Species Ti           13.13218300        0.00000000       35.63294100
  |  131: Species Ti            9.84911900        1.48644100       35.63294100
  |  132: Species O             7.84278500        1.48644100       35.63297000
  |  133: Species O             9.84914200        0.00000000       36.90970800
  |  134: Species O            13.13214300        0.00000000       37.63940900
  |  135: Species O             8.57237300        1.48644100       38.91614700
  |  136: Species Ti            9.84910200        0.00000000       38.91617600
  |  137: Species Ti           13.13216500        1.48644100       38.91617600
  |  138: Species O            11.12583100        1.48644100       38.91620600
  |  139: Species O            13.13218800        0.00000000       40.19294300
  |  140: Species O             9.84906200        0.00000000       40.92264500
  |  141: Species Ti            6.56612600        2.97288300       22.50000000
  |  142: Species Ti            9.84919000        4.45932400       22.50000000
  |  143: Species O             7.84285600        4.45932400       22.50002900
  |  144: Species O             9.84921200        2.97288300       23.77676700
  |  145: Species O            13.13221300        2.97288300       24.50646800
  |  146: Species O             8.57244300        4.45932400       25.78320600
  |  147: Species Ti            9.84917200        2.97288300       25.78323500
  |  148: Species Ti           13.13223500        4.45932400       25.78323500
  |  149: Species O            11.12590100        4.45932400       25.78326500
  |  150: Species O             6.56613100        2.97288300       27.06000200
  |  151: Species O             9.84913200        2.97288300       27.78970400
  |  152: Species O            11.85548900        4.45932400       29.06644100
  |  153: Species Ti           13.13221800        2.97288300       29.06647100
  |  154: Species Ti            9.84915500        4.45932400       29.06647100
  |  155: Species O             7.84282000        4.45932400       29.06650000
  |  156: Species O             9.84917700        2.97288300       30.34323700
  |  157: Species O            13.13217800        2.97288300       31.07293900
  |  158: Species O             8.57240800        4.45932400       32.34967600
  |  159: Species Ti            9.84913700        2.97288300       32.34970600
  |  160: Species Ti           13.13220000        4.45932400       32.34970600
  |  161: Species O            11.12586600        4.45932400       32.34973500
  |  162: Species O            13.13222300        2.97288300       33.62647300
  |  163: Species O             9.84909700        2.97288300       34.35617400
  |  164: Species O            11.85545400        4.45932400       35.63291200
  |  165: Species Ti           13.13218300        2.97288300       35.63294100
  |  166: Species Ti            9.84911900        4.45932400       35.63294100
  |  167: Species O             7.84278500        4.45932400       35.63297000
  |  168: Species O             9.84914200        2.97288300       36.90970800
  |  169: Species O            13.13214300        2.97288300       37.63940900
  |  170: Species O             8.57237300        4.45932400       38.91614700
  |  171: Species Ti            9.84910200        2.97288300       38.91617600
  |  172: Species Ti           13.13216500        4.45932400       38.91617600
  |  173: Species O            11.12583100        4.45932400       38.91620600
  |  174: Species O            13.13218800        2.97288300       40.19294300
  |  175: Species O             9.84906200        2.97288300       40.92264500
  |  176: Species Ti            6.56612600        5.94576500       22.50000000
  |  177: Species Ti            9.84919000        7.43220700       22.50000000
  |  178: Species O             7.84285600        7.43220700       22.50002900
  |  179: Species O             9.84921200        5.94576500       23.77676700
  |  180: Species O            13.13221300        5.94576500       24.50646800
  |  181: Species O             8.57244300        7.43220700       25.78320600
  |  182: Species Ti            9.84917200        5.94576500       25.78323500
  |  183: Species Ti           13.13223500        7.43220700       25.78323500
  |  184: Species O            11.12590100        7.43220700       25.78326500
  |  185: Species O             6.56613100        5.94576500       27.06000200
  |  186: Species O             9.84913200        5.94576500       27.78970400
  |  187: Species O            11.85548900        7.43220700       29.06644100
  |  188: Species Ti           13.13221800        5.94576500       29.06647100
  |  189: Species Ti            9.84915500        7.43220700       29.06647100
  |  190: Species O             7.84282000        7.43220700       29.06650000
  |  191: Species O             9.84917700        5.94576500       30.34323700
  |  192: Species O            13.13217800        5.94576500       31.07293900
  |  193: Species O             8.57240800        7.43220700       32.34967600
  |  194: Species Ti            9.84913700        5.94576500       32.34970600
  |  195: Species Ti           13.13220000        7.43220700       32.34970600
  |  196: Species O            11.12586600        7.43220700       32.34973500
  |  197: Species O            13.13222300        5.94576500       33.62647300
  |  198: Species O             9.84909700        5.94576500       34.35617400
  |  199: Species O            11.85545400        7.43220700       35.63291200
  |  200: Species Ti           13.13218300        5.94576500       35.63294100
  |  201: Species Ti            9.84911900        7.43220700       35.63294100
  |  202: Species O             7.84278500        7.43220700       35.63297000
  |  203: Species O             9.84914200        5.94576500       36.90970800
  |  204: Species O            13.13214300        5.94576500       37.63940900
  |  205: Species O             8.57237300        7.43220700       38.91614700
  |  206: Species Ti            9.84910200        5.94576500       38.91617600
  |  207: Species Ti           13.13216500        7.43220700       38.91617600
  |  208: Species O            11.12583100        7.43220700       38.91620600
  |  209: Species O            13.13218800        5.94576500       40.19294300
  |  210: Species O             9.84906200        5.94576500       40.92264500
  |  211: Species Ti           13.13225300        0.00000000       22.50000000
  |  212: Species Ti           16.41531600        1.48644100       22.50000000
  |  213: Species O            14.40898200        1.48644100       22.50002900
  |  214: Species O            16.41533900        0.00000000       23.77676700
  |  215: Species O            19.69833900        0.00000000       24.50646800
  |  216: Species O            15.13857000        1.48644100       25.78320600
  |  217: Species Ti           16.41529900        0.00000000       25.78323500
  |  218: Species Ti           19.69836200        1.48644100       25.78323500
  |  219: Species O            17.69202800        1.48644100       25.78326500
  |  220: Species O            13.13225800        0.00000000       27.06000200
  |  221: Species O            16.41525900        0.00000000       27.78970400
  |  222: Species O            18.42161500        1.48644100       29.06644100
  |  223: Species Ti           19.69834400        0.00000000       29.06647100
  |  224: Species Ti           16.41528100        1.48644100       29.06647100
  |  225: Species O            14.40894700        1.48644100       29.06650000
  |  226: Species O            16.41530400        0.00000000       30.34323700
  |  227: Species O            19.69830400        0.00000000       31.07293900
  |  228: Species O            15.13853400        1.48644100       32.34967600
  |  229: Species Ti           16.41526300        0.00000000       32.34970600
  |  230: Species Ti           19.69832700        1.48644100       32.34970600
  |  231: Species O            17.69199300        1.48644100       32.34973500
  |  232: Species O            19.69834900        0.00000000       33.62647300
  |  233: Species O            16.41522300        0.00000000       34.35617400
  |  234: Species O            18.42158000        1.48644100       35.63291200
  |  235: Species Ti           19.69830900        0.00000000       35.63294100
  |  236: Species Ti           16.41524600        1.48644100       35.63294100
  |  237: Species O            14.40891200        1.48644100       35.63297000
  |  238: Species O            16.41526800        0.00000000       36.90970800
  |  239: Species O            19.69826900        0.00000000       37.63940900
  |  240: Species O            15.13849900        1.48644100       38.91614700
  |  241: Species Ti           16.41522800        0.00000000       38.91617600
  |  242: Species Ti           19.69829200        1.48644100       38.91617600
  |  243: Species O            17.69195700        1.48644100       38.91620600
  |  244: Species O            19.69831400        0.00000000       40.19294300
  |  245: Species O            16.41518800        0.00000000       40.92264500
  |  246: Species Ti           13.13225300        2.97288300       22.50000000
  |  247: Species Ti           16.41531600        4.45932400       22.50000000
  |  248: Species O            14.40898200        4.45932400       22.50002900
  |  249: Species O            16.41533900        2.97288300       23.77676700
  |  250: Species O            19.69833900        2.97288300       24.50646800
  |  251: Species O            15.13857000        4.45932400       25.78320600
  |  252: Species Ti           16.41529900        2.97288300       25.78323500
  |  253: Species Ti           19.69836200        4.45932400       25.78323500
  |  254: Species O            17.69202800        4.45932400       25.78326500
  |  255: Species O            13.13225800        2.97288300       27.06000200
  |  256: Species O            16.41525900        2.97288300       27.78970400
  |  257: Species O            18.42161500        4.45932400       29.06644100
  |  258: Species Ti           19.69834400        2.97288300       29.06647100
  |  259: Species Ti           16.41528100        4.45932400       29.06647100
  |  260: Species O            14.40894700        4.45932400       29.06650000
  |  261: Species O            16.41530400        2.97288300       30.34323700
  |  262: Species O            19.69830400        2.97288300       31.07293900
  |  263: Species O            15.13853400        4.45932400       32.34967600
  |  264: Species Ti           16.41526300        2.97288300       32.34970600
  |  265: Species Ti           19.69832700        4.45932400       32.34970600
  |  266: Species O            17.69199300        4.45932400       32.34973500
  |  267: Species O            19.69834900        2.97288300       33.62647300
  |  268: Species O            16.41522300        2.97288300       34.35617400
  |  269: Species O            18.42158000        4.45932400       35.63291200
  |  270: Species Ti           19.69830900        2.97288300       35.63294100
  |  271: Species Ti           16.41524600        4.45932400       35.63294100
  |  272: Species O            14.40891200        4.45932400       35.63297000
  |  273: Species O            16.41526800        2.97288300       36.90970800
  |  274: Species O            19.69826900        2.97288300       37.63940900
  |  275: Species O            15.13849900        4.45932400       38.91614700
  |  276: Species Ti           16.41522800        2.97288300       38.91617600
  |  277: Species Ti           19.69829200        4.45932400       38.91617600
  |  278: Species O            17.69195700        4.45932400       38.91620600
  |  279: Species O            19.69831400        2.97288300       40.19294300
  |  280: Species O            16.41518800        2.97288300       40.92264500
  |  281: Species Ti           13.13225300        5.94576500       22.50000000
  |  282: Species Ti           16.41531600        7.43220700       22.50000000
  |  283: Species O            14.40898200        7.43220700       22.50002900
  |  284: Species O            16.41533900        5.94576500       23.77676700
  |  285: Species O            19.69833900        5.94576500       24.50646800
  |  286: Species O            15.13857000        7.43220700       25.78320600
  |  287: Species Ti           16.41529900        5.94576500       25.78323500
  |  288: Species Ti           19.69836200        7.43220700       25.78323500
  |  289: Species O            17.69202800        7.43220700       25.78326500
  |  290: Species O            13.13225800        5.94576500       27.06000200
  |  291: Species O            16.41525900        5.94576500       27.78970400
  |  292: Species O            18.42161500        7.43220700       29.06644100
  |  293: Species Ti           19.69834400        5.94576500       29.06647100
  |  294: Species Ti           16.41528100        7.43220700       29.06647100
  |  295: Species O            14.40894700        7.43220700       29.06650000
  |  296: Species O            16.41530400        5.94576500       30.34323700
  |  297: Species O            19.69830400        5.94576500       31.07293900
  |  298: Species O            15.13853400        7.43220700       32.34967600
  |  299: Species Ti           16.41526300        5.94576500       32.34970600
  |  300: Species Ti           19.69832700        7.43220700       32.34970600
  |  301: Species O            17.69199300        7.43220700       32.34973500
  |  302: Species O            19.69834900        5.94576500       33.62647300
  |  303: Species O            16.41522300        5.94576500       34.35617400
  |  304: Species O            18.42158000        7.43220700       35.63291200
  |  305: Species Ti           19.69830900        5.94576500       35.63294100
  |  306: Species Ti           16.41524600        7.43220700       35.63294100
  |  307: Species O            14.40891200        7.43220700       35.63297000
  |  308: Species O            16.41526800        5.94576500       36.90970800
  |  309: Species O            19.69826900        5.94576500       37.63940900
  |  310: Species O            15.13849900        7.43220700       38.91614700
  |  311: Species Ti           16.41522800        5.94576500       38.91617600
  |  312: Species Ti           19.69829200        7.43220700       38.91617600
  |  313: Species O            17.69195700        7.43220700       38.91620600
  |  314: Species O            19.69831400        5.94576500       40.19294300
  |  315: Species O            16.41518800        5.94576500       40.92264500

  Lattice parameters for 3D lattice (in Angstroms) :    19.698380    8.918648   63.422645
  Angle(s) between unit vectors (in degrees)       :    90.000000   90.000000   90.000000


  Quantities derived from the lattice vectors (in Angstrom^-1):
  | Reciprocal lattice vector 1:  0.318970  0.000000  0.000000
  | Reciprocal lattice vector 2:  0.000000  0.704500  0.000000
  | Reciprocal lattice vector 3:  0.000000  0.000000  0.099068
  | Unit cell volume                               :   0.111423E+05  Angstrom^3

  Fractional coordinates:
                         L1                L2                L3
       atom_frac         0.99999995        0.00000000        0.35476288  Ti
       atom_frac         0.16666665        0.16666663        0.35476288  Ti
       atom_frac         0.06481391        0.16666663        0.35476333  O
       atom_frac         0.16666782        0.00000000        0.37489397  O
       atom_frac         0.33333127        0.00000000        0.38639934  O
       atom_frac         0.10185188        0.16666663        0.40652997  O
       atom_frac         0.16666579        0.00000000        0.40653043  Ti
       atom_frac         0.33333244        0.16666663        0.40653043  Ti
       atom_frac         0.23147970        0.16666663        0.40653090  O
       atom_frac         0.00000025        0.00000000        0.42666152  O
       atom_frac         0.16666376        0.00000000        0.43816690  O
       atom_frac         0.26851761        0.16666663        0.45829752  O
       atom_frac         0.33333152        0.00000000        0.45829799  Ti
       atom_frac         0.16666487        0.16666663        0.45829799  Ti
       atom_frac         0.06481213        0.16666663        0.45829845  O
       atom_frac         0.16666604        0.00000000        0.47842907  O
       atom_frac         0.33332949        0.00000000        0.48993445  O
       atom_frac         0.10185005        0.16666663        0.51006507  O
       atom_frac         0.16666396        0.00000000        0.51006555  Ti
       atom_frac         0.33333066        0.16666663        0.51006555  Ti
       atom_frac         0.23147792        0.16666663        0.51006600  O
       atom_frac         0.33333178        0.00000000        0.53019664  O
       atom_frac         0.16666193        0.00000000        0.54170201  O
       atom_frac         0.26851584        0.16666663        0.56183264  O
       atom_frac         0.33332975        0.00000000        0.56183310  Ti
       atom_frac         0.16666310        0.16666663        0.56183310  Ti
       atom_frac         0.06481035        0.16666663        0.56183355  O
       atom_frac         0.16666421        0.00000000        0.58196419  O
       atom_frac         0.33332772        0.00000000        0.59346956  O
       atom_frac         0.10184827        0.16666663        0.61360019  O
       atom_frac         0.16666218        0.00000000        0.61360065  Ti
       atom_frac         0.33332888        0.16666663        0.61360065  Ti
       atom_frac         0.23147609        0.16666663        0.61360112  O
       atom_frac         0.33333000        0.00000000        0.63373174  O
       atom_frac         0.16666015        0.00000000        0.64523712  O
       atom_frac         0.99999995        0.33333337        0.35476288  Ti
       atom_frac         0.16666665        0.50000000        0.35476288  Ti
       atom_frac         0.06481391        0.50000000        0.35476333  O
       atom_frac         0.16666782        0.33333337        0.37489397  O
       atom_frac         0.33333127        0.33333337        0.38639934  O
       atom_frac         0.10185188        0.50000000        0.40652997  O
       atom_frac         0.16666579        0.33333337        0.40653043  Ti
       atom_frac         0.33333244        0.50000000        0.40653043  Ti
       atom_frac         0.23147970        0.50000000        0.40653090  O
       atom_frac         0.00000025        0.33333337        0.42666152  O
       atom_frac         0.16666376        0.33333337        0.43816690  O
       atom_frac         0.26851761        0.50000000        0.45829752  O
       atom_frac         0.33333152        0.33333337        0.45829799  Ti
       atom_frac         0.16666487        0.50000000        0.45829799  Ti
       atom_frac         0.06481213        0.50000000        0.45829845  O
       atom_frac         0.16666604        0.33333337        0.47842907  O
       atom_frac         0.33332949        0.33333337        0.48993445  O
       atom_frac         0.10185005        0.50000000        0.51006507  O
       atom_frac         0.16666396        0.33333337        0.51006555  Ti
       atom_frac         0.33333066        0.50000000        0.51006555  Ti
       atom_frac         0.23147792        0.50000000        0.51006600  O
       atom_frac         0.33333178        0.33333337        0.53019664  O
       atom_frac         0.16666193        0.33333337        0.54170201  O
       atom_frac         0.26851584        0.50000000        0.56183264  O
       atom_frac         0.33332975        0.33333337        0.56183310  Ti
       atom_frac         0.16666310        0.50000000        0.56183310  Ti
       atom_frac         0.06481035        0.50000000        0.56183355  O
       atom_frac         0.16666421        0.33333337        0.58196419  O
       atom_frac         0.33332772        0.33333337        0.59346956  O
       atom_frac         0.10184827        0.50000000        0.61360019  O
       atom_frac         0.16666218        0.33333337        0.61360065  Ti
       atom_frac         0.33332888        0.50000000        0.61360065  Ti
       atom_frac         0.23147609        0.50000000        0.61360112  O
       atom_frac         0.33333000        0.33333337        0.63373174  O
       atom_frac         0.16666015        0.33333337        0.64523712  O
       atom_frac         0.99999995        0.66666663        0.35476288  Ti
       atom_frac         0.16666665        0.83333337        0.35476288  Ti
       atom_frac         0.06481391        0.83333337        0.35476333  O
       atom_frac         0.16666782        0.66666663        0.37489397  O
       atom_frac         0.33333127        0.66666663        0.38639934  O
       atom_frac         0.10185188        0.83333337        0.40652997  O
       atom_frac         0.16666579        0.66666663        0.40653043  Ti
       atom_frac         0.33333244        0.83333337        0.40653043  Ti
       atom_frac         0.23147970        0.83333337        0.40653090  O
       atom_frac         0.00000025        0.66666663        0.42666152  O
       atom_frac         0.16666376        0.66666663        0.43816690  O
       atom_frac         0.26851761        0.83333337        0.45829752  O
       atom_frac         0.33333152        0.66666663        0.45829799  Ti
       atom_frac         0.16666487        0.83333337        0.45829799  Ti
       atom_frac         0.06481213        0.83333337        0.45829845  O
       atom_frac         0.16666604        0.66666663        0.47842907  O
       atom_frac         0.33332949        0.66666663        0.48993445  O
       atom_frac         0.10185005        0.83333337        0.51006507  O
       atom_frac         0.16666396        0.66666663        0.51006555  Ti
       atom_frac         0.33333066        0.83333337        0.51006555  Ti
       atom_frac         0.23147792        0.83333337        0.51006600  O
       atom_frac         0.33333178        0.66666663        0.53019664  O
       atom_frac         0.16666193        0.66666663        0.54170201  O
       atom_frac         0.26851584        0.83333337        0.56183264  O
       atom_frac         0.33332975        0.66666663        0.56183310  Ti
       atom_frac         0.16666310        0.83333337        0.56183310  Ti
       atom_frac         0.06481035        0.83333337        0.56183355  O
       atom_frac         0.16666421        0.66666663        0.58196419  O
       atom_frac         0.33332772        0.66666663        0.59346956  O
       atom_frac         0.10184827        0.83333337        0.61360019  O
       atom_frac         0.16666218        0.66666663        0.61360065  Ti
       atom_frac         0.33332888        0.83333337        0.61360065  Ti
       atom_frac         0.23147609        0.83333337        0.61360112  O
       atom_frac         0.33333000        0.66666663        0.63373174  O
       atom_frac         0.16666015        0.66666663        0.64523712  O
       atom_frac         0.33333330        0.00000000        0.35476288  Ti
       atom_frac         0.50000000        0.16666663        0.35476288  Ti
       atom_frac         0.39814726        0.16666663        0.35476333  O
       atom_frac         0.50000112        0.00000000        0.37489397  O
       atom_frac         0.66666462        0.00000000        0.38639934  O
       atom_frac         0.43518518        0.16666663        0.40652997  O
       atom_frac         0.49999909        0.00000000        0.40653043  Ti
       atom_frac         0.66666574        0.16666663        0.40653043  Ti
       atom_frac         0.56481299        0.16666663        0.40653090  O
       atom_frac         0.33333355        0.00000000        0.42666152  O
       atom_frac         0.49999706        0.00000000        0.43816690  O
       atom_frac         0.60185096        0.16666663        0.45829752  O
       atom_frac         0.66666487        0.00000000        0.45829799  Ti
       atom_frac         0.49999822        0.16666663        0.45829799  Ti
       atom_frac         0.39814543        0.16666663        0.45829845  O
       atom_frac         0.49999934        0.00000000        0.47842907  O
       atom_frac         0.66666284        0.00000000        0.48993445  O
       atom_frac         0.43518340        0.16666663        0.51006507  O
       atom_frac         0.49999731        0.00000000        0.51006555  Ti
       atom_frac         0.66666396        0.16666663        0.51006555  Ti
       atom_frac         0.56481122        0.16666663        0.51006600  O
       atom_frac         0.66666513        0.00000000        0.53019664  O
       atom_frac         0.49999528        0.00000000        0.54170201  O
       atom_frac         0.60184919        0.16666663        0.56183264  O
       atom_frac         0.66666310        0.00000000        0.56183310  Ti
       atom_frac         0.49999640        0.16666663        0.56183310  Ti
       atom_frac         0.39814365        0.16666663        0.56183355  O
       atom_frac         0.49999756        0.00000000        0.58196419  O
       atom_frac         0.66666107        0.00000000        0.59346956  O
       atom_frac         0.43518162        0.16666663        0.61360019  O
       atom_frac         0.49999553        0.00000000        0.61360065  Ti
       atom_frac         0.66666218        0.16666663        0.61360065  Ti
       atom_frac         0.56480944        0.16666663        0.61360112  O
       atom_frac         0.66666335        0.00000000        0.63373174  O
       atom_frac         0.49999350        0.00000000        0.64523712  O
       atom_frac         0.33333330        0.33333337        0.35476288  Ti
       atom_frac         0.50000000        0.50000000        0.35476288  Ti
       atom_frac         0.39814726        0.50000000        0.35476333  O
       atom_frac         0.50000112        0.33333337        0.37489397  O
       atom_frac         0.66666462        0.33333337        0.38639934  O
       atom_frac         0.43518518        0.50000000        0.40652997  O
       atom_frac         0.49999909        0.33333337        0.40653043  Ti
       atom_frac         0.66666574        0.50000000        0.40653043  Ti
       atom_frac         0.56481299        0.50000000        0.40653090  O
       atom_frac         0.33333355        0.33333337        0.42666152  O
       atom_frac         0.49999706        0.33333337        0.43816690  O
       atom_frac         0.60185096        0.50000000        0.45829752  O
       atom_frac         0.66666487        0.33333337        0.45829799  Ti
       atom_frac         0.49999822        0.50000000        0.45829799  Ti
       atom_frac         0.39814543        0.50000000        0.45829845  O
       atom_frac         0.49999934        0.33333337        0.47842907  O
       atom_frac         0.66666284        0.33333337        0.48993445  O
       atom_frac         0.43518340        0.50000000        0.51006507  O
       atom_frac         0.49999731        0.33333337        0.51006555  Ti
       atom_frac         0.66666396        0.50000000        0.51006555  Ti
       atom_frac         0.56481122        0.50000000        0.51006600  O
       atom_frac         0.66666513        0.33333337        0.53019664  O
       atom_frac         0.49999528        0.33333337        0.54170201  O
       atom_frac         0.60184919        0.50000000        0.56183264  O
       atom_frac         0.66666310        0.33333337        0.56183310  Ti
       atom_frac         0.49999640        0.50000000        0.56183310  Ti
       atom_frac         0.39814365        0.50000000        0.56183355  O
       atom_frac         0.49999756        0.33333337        0.58196419  O
       atom_frac         0.66666107        0.33333337        0.59346956  O
       atom_frac         0.43518162        0.50000000        0.61360019  O
       atom_frac         0.49999553        0.33333337        0.61360065  Ti
       atom_frac         0.66666218        0.50000000        0.61360065  Ti
       atom_frac         0.56480944        0.50000000        0.61360112  O
       atom_frac         0.66666335        0.33333337        0.63373174  O
       atom_frac         0.49999350        0.33333337        0.64523712  O
       atom_frac         0.33333330        0.66666663        0.35476288  Ti
       atom_frac         0.50000000        0.83333337        0.35476288  Ti
       atom_frac         0.39814726        0.83333337        0.35476333  O
       atom_frac         0.50000112        0.66666663        0.37489397  O
       atom_frac         0.66666462        0.66666663        0.38639934  O
       atom_frac         0.43518518        0.83333337        0.40652997  O
       atom_frac         0.49999909        0.66666663        0.40653043  Ti
       atom_frac         0.66666574        0.83333337        0.40653043  Ti
       atom_frac         0.56481299        0.83333337        0.40653090  O
       atom_frac         0.33333355        0.66666663        0.42666152  O
       atom_frac         0.49999706        0.66666663        0.43816690  O
       atom_frac         0.60185096        0.83333337        0.45829752  O
       atom_frac         0.66666487        0.66666663        0.45829799  Ti
       atom_frac         0.49999822        0.83333337        0.45829799  Ti
       atom_frac         0.39814543        0.83333337        0.45829845  O
       atom_frac         0.49999934        0.66666663        0.47842907  O
       atom_frac         0.66666284        0.66666663        0.48993445  O
       atom_frac         0.43518340        0.83333337        0.51006507  O
       atom_frac         0.49999731        0.66666663        0.51006555  Ti
       atom_frac         0.66666396        0.83333337        0.51006555  Ti
       atom_frac         0.56481122        0.83333337        0.51006600  O
       atom_frac         0.66666513        0.66666663        0.53019664  O
       atom_frac         0.49999528        0.66666663        0.54170201  O
       atom_frac         0.60184919        0.83333337        0.56183264  O
       atom_frac         0.66666310        0.66666663        0.56183310  Ti
       atom_frac         0.49999640        0.83333337        0.56183310  Ti
       atom_frac         0.39814365        0.83333337        0.56183355  O
       atom_frac         0.49999756        0.66666663        0.58196419  O
       atom_frac         0.66666107        0.66666663        0.59346956  O
       atom_frac         0.43518162        0.83333337        0.61360019  O
       atom_frac         0.49999553        0.66666663        0.61360065  Ti
       atom_frac         0.66666218        0.83333337        0.61360065  Ti
       atom_frac         0.56480944        0.83333337        0.61360112  O
       atom_frac         0.66666335        0.66666663        0.63373174  O
       atom_frac         0.49999350        0.66666663        0.64523712  O
       atom_frac         0.66666665        0.00000000        0.35476288  Ti
       atom_frac         0.83333330        0.16666663        0.35476288  Ti
       atom_frac         0.73148056        0.16666663        0.35476333  O
       atom_frac         0.83333447        0.00000000        0.37489397  O
       atom_frac         0.99999792        0.00000000        0.38639934  O
       atom_frac         0.76851853        0.16666663        0.40652997  O
       atom_frac         0.83333244        0.00000000        0.40653043  Ti
       atom_frac         0.99999909        0.16666663        0.40653043  Ti
       atom_frac         0.89814635        0.16666663        0.40653090  O
       atom_frac         0.66666690        0.00000000        0.42666152  O
       atom_frac         0.83333041        0.00000000        0.43816690  O
       atom_frac         0.93518426        0.16666663        0.45829752  O
       atom_frac         0.99999817        0.00000000        0.45829799  Ti
       atom_frac         0.83333152        0.16666663        0.45829799  Ti
       atom_frac         0.73147878        0.16666663        0.45829845  O
       atom_frac         0.83333269        0.00000000        0.47842907  O
       atom_frac         0.99999614        0.00000000        0.48993445  O
       atom_frac         0.76851670        0.16666663        0.51006507  O
       atom_frac         0.83333061        0.00000000        0.51006555  Ti
       atom_frac         0.99999731        0.16666663        0.51006555  Ti
       atom_frac         0.89814457        0.16666663        0.51006600  O
       atom_frac         0.99999843        0.00000000        0.53019664  O
       atom_frac         0.83332858        0.00000000        0.54170201  O
       atom_frac         0.93518249        0.16666663        0.56183264  O
       atom_frac         0.99999640        0.00000000        0.56183310  Ti
       atom_frac         0.83332975        0.16666663        0.56183310  Ti
       atom_frac         0.73147700        0.16666663        0.56183355  O
       atom_frac         0.83333086        0.00000000        0.58196419  O
       atom_frac         0.99999437        0.00000000        0.59346956  O
       atom_frac         0.76851492        0.16666663        0.61360019  O
       atom_frac         0.83332883        0.00000000        0.61360065  Ti
       atom_frac         0.99999553        0.16666663        0.61360065  Ti
       atom_frac         0.89814274        0.16666663        0.61360112  O
       atom_frac         0.99999665        0.00000000        0.63373174  O
       atom_frac         0.83332680        0.00000000        0.64523712  O
[...]
  this material is metallic within the approximate finite broadening function (occupation_type)
  applied to determine the occupation numbers.

  Total energy components:
  | Sum of eigenvalues            :      -63947.94708033 Ha    -1740112.17598850 eV
  | XC energy correction          :       -6325.42560087 Ha     -172123.58815152 eV
  | XC potential correction       :        8178.72171107 Ha      222554.34119837 eV
  | Free-atom electrostatic energy:      -45875.85724272 Ha    -1248345.59069880 eV
  | Hartree energy correction     :         -97.82711255 Ha       -2662.01117415 eV
  | Entropy correction            :          -0.00415237 Ha          -0.11299182 eV
  | ---------------------------
  | Total energy                  :     -108068.33532541 Ha    -2940689.02481459 eV
  | Total energy, T -> 0          :     -108068.33947778 Ha    -2940689.13780640 eV  <-- do not rely on this value for anything but (periodic) metals
  | Electronic free energy        :     -108068.34363015 Ha    -2940689.25079822 eV

  Derived energy quantities:
  | Kinetic energy                :      108816.29007600 Ha     2961041.90912149 eV
  | Electrostatic energy          :     -210559.19980053 Ha    -5729607.34578456 eV
  | Energy correction for multipole
  | error in Hartree potential    :           1.04812105 Ha          28.52082503 eV
  | Sum of eigenvalues per atom                           :       -5524.16563806 eV
  | Total energy (T->0) per atom                          :       -9335.52107240 eV  <-- do not rely on this value for anything but (periodic) metals
  | Electronic free energy per atom                       :       -9335.52143111 eV
  Evaluating new KS density using the density matrix
  Evaluating density matrix
  Evaluating density matrix
  Time summed over all CPUs for getting density from density matrix: real work      673.853 s, elapsed      705.287 s
  Integration grid: deviation in total charge (<rho> - N_e) =   4.060894E-10
  | <rho_up-rho_dn> = N_up-N_dn =     -0.0000; <|rho_up-rho_dn|> =      0.0000

  Self-consistency convergence accuracy:
  | Change of charge/spin density :  0.1569E+00  0.9251E-07
  | Change of unmixed KS charge/spin density :  0.1465E+00  0.2691E-07
  | Change of sum of eigenvalues  :  0.8413E+00 eV
  | Change of total energy        : -0.2120E-02 eV


------------------------------------------------------------
  End self-consistency iteration #    68       :  max(cpu_time)    wall_clock(cpu1)
  | Time for this iteration                     :      519.673 s         519.691 s
  | Charge density update                       :       41.297 s          41.298 s
  | Density mixing & preconditioning            :       64.189 s          64.190 s
  | Hartree multipole update                    :        0.030 s           0.030 s
  | Hartree multipole summation                 :        2.582 s           2.583 s
  | Integration                                 :        9.092 s           9.092 s
  | Solution of K.-S. eqns.                     :      402.476 s         402.491 s
  | Total energy evaluation                     :        0.000 s           0.001 s

  Partial memory accounting:
  | Current value for overall tracked memory usage:
  |   Minimum:      382.005 MB (on task 17)
  |   Maximum:      997.988 MB (on task  1)
  |   Average:      420.550 MB
  | Peak value for overall tracked memory usage:
  |   Minimum:      990.875 MB (on task 13 after allocating kdm)
  |   Maximum:     3676.956 MB (on task  1 after allocating eval_tmp)
  |   Average:     1159.309 MB
  | Largest tracked array allocation so far:
  |   Minimum:      595.284 MB (KS_eigenvector_complex on task  0)
  |   Maximum:      615.870 MB (KS_eigenvector_complex on task  1)
  |   Average:      596.570 MB
  Note:  These values currently only include a subset of arrays which are explicitly tracked.
  The "true" memory usage will be greater.
------------------------------------------------------------

------------------------------------------------------------
          Begin self-consistency iteration #   69

  Date     :  20241006, Time     :  232541.543
------------------------------------------------------------
  Pulay mixing of updated and previous charge densities.
  Available memory per node after mixing [GB]:    706.53
  Renormalizing the density to the exact electron count on the 3D integration grid.
  | Formal number of electrons (from input files) :    4032.0000000000
  | Integrated number of electrons on 3D grid     :    4032.0104531463
  | Charge integration error                      :       0.0104531463
  | Normalization factor for density and gradient :       0.9999974075

  Evaluating partitioned Hartree potential by multipole expansion.
  | Original multipole sum: apparent total charge =  -0.211229E-10
  | Sum of charges compensated after spline to logarithmic grids =   0.119843E-02
  | Analytical far-field extrapolation by fixed multipoles:
  | Hartree multipole sum: apparent total charge =  -0.211253E-10
  Summing up the Hartree potential.
  Time summed over all CPUs for potential: real work        2.533 s, elapsed        2.611 s
  | RMS charge density error from multipole expansion :   0.127970E+00
  | Average real-space part of the electrostatic potential :      0.18959327 eV

  Integrating Hamiltonian matrix: batch-based integration.
  Time summed over all CPUs for integration: real work      266.960 s, elapsed      277.137 s

  Updating Kohn-Sham eigenvalues and eigenvectors using ELSI and the (modified) LAPACK eigensolver.

  Obtaining occupation numbers and electronic chemical potential using ELSI.
  | Note that, for insulating systems, the printed 'chemical potential' value is not uniquely defined.
  | It can be anywhere in the energy gap, as long as it correctly separates occupied and unoccupied states.
  | In systems with a gap, the physically relevant chemical potential is the VBM or HOMO.

  | Chemical potential (Fermi level):    -6.77690478 eV
  Current spin moment of the entire structure :
  | N = N_up - N_down (sum over all k points):         0.00000
  | S (sum over all k points)                :         0.00000

  What follows are estimated values for band gap, HOMO, LUMO, etc.
  | They are estimated on a discrete k-point grid and not necessarily exact.
  | For converged numbers, create a DOS and/or band structure plot on a denser k-grid.

  Highest occupied state (VBM) at     -6.78009977 eV (relative to internal zero)
  | Occupation number:      0.53600262
  | K-point:       1 at    0.000000    0.000000    0.000000 (in units of recip. lattice)
  | Spin channel:        1

  Lowest unoccupied state (CBM) at    -6.75242911 eV (relative to internal zero)
  | Occupation number:      0.24438194
  | K-point:       2 at    0.000000    0.333333    0.000000 (in units of recip. lattice)
  | Spin channel:        2

  ESTIMATED overall HOMO-LUMO gap:      0.02767065 eV between HOMO at k-point 1 and LUMO at k-point 2
  | This appears to be an indirect band gap.
  | Smallest direct gap :      0.03195560 eV for k_point 2 at    0.000000    0.333333    0.000000 (in units of recip. lattice)
  | Direct gap HOMO spin channel :     1
  | Direct gap LUMO spin channel :     2
  However, this system has fractional occupation numbers. Since we use a finite k-point grid,
  this material is metallic within the approximate finite broadening function (occupation_type)
  applied to determine the occupation numbers.

  Total energy components:
  | Sum of eigenvalues            :      -63947.56438485 Ha    -1740101.76231466 eV
  | XC energy correction          :       -6325.37700619 Ha     -172122.26582281 eV
  | XC potential correction       :        8178.65792780 Ha      222552.60556739 eV
  | Free-atom electrostatic energy:      -45875.85724272 Ha    -1248345.59069880 eV
  | Hartree energy correction     :         -98.19561101 Ha       -2672.03852749 eV
  | Entropy correction            :          -0.00365887 Ha          -0.09956292 eV
  | ---------------------------
  | Total energy                  :     -108068.33631697 Ha    -2940689.05179637 eV
  | Total energy, T -> 0          :     -108068.33997584 Ha    -2940689.15135929 eV  <-- do not rely on this value for anything but (periodic) metals
  | Electronic free energy        :     -108068.34363471 Ha    -2940689.25092220 eV

  Derived energy quantities:
  | Kinetic energy                :      108815.77108748 Ha     2961027.78672540 eV
  | Electrostatic energy          :     -210558.73039826 Ha    -5729594.57269896 eV
  | Energy correction for multipole
  | error in Hartree potential    :           1.04217046 Ha          28.35890106 eV
  | Sum of eigenvalues per atom                           :       -5524.13257878 eV
  | Total energy (T->0) per atom                          :       -9335.52111543 eV  <-- do not rely on this value for anything but (periodic) metals
  | Electronic free energy per atom                       :       -9335.52143150 eV
  Evaluating new KS density using the density matrix
  Evaluating density matrix
  Evaluating density matrix
  Time summed over all CPUs for getting density from density matrix: real work      760.714 s, elapsed      827.826 s
  Integration grid: deviation in total charge (<rho> - N_e) =   4.156391E-10
  | <rho_up-rho_dn> = N_up-N_dn =     -0.0000; <|rho_up-rho_dn|> =      0.0000

  Self-consistency convergence accuracy:
  | Change of charge/spin density :  0.8077E-01  0.1272E-06
  | Change of unmixed KS charge/spin density :  0.9063E-01  0.4136E-07
  | Change of sum of eigenvalues  :  0.1041E+02 eV
  | Change of total energy        : -0.2698E-01 eV


------------------------------------------------------------
  End self-consistency iteration #    69       :  max(cpu_time)    wall_clock(cpu1)
  | Time for this iteration                     :      540.590 s         540.610 s
  | Charge density update                       :       46.780 s          46.782 s
  | Density mixing & preconditioning            :       63.691 s          63.694 s
  | Hartree multipole update                    :        0.031 s           0.031 s
  | Hartree multipole summation                 :        2.710 s           2.709 s
  | Integration                                 :        8.893 s           8.894 s
  | Solution of K.-S. eqns.                     :      418.479 s         418.493 s
  | Total energy evaluation                     :        0.000 s           0.001 s

  Partial memory accounting:
  | Current value for overall tracked memory usage:
  |   Minimum:      382.005 MB (on task 17)
  |   Maximum:      997.988 MB (on task  1)
  |   Average:      420.550 MB
  | Peak value for overall tracked memory usage:
  |   Minimum:      990.875 MB (on task 13 after allocating kdm)
  |   Maximum:     3676.956 MB (on task  1 after allocating eval_tmp)
  |   Average:     1159.309 MB
  | Largest tracked array allocation so far:
  |   Minimum:      595.284 MB (KS_eigenvector_complex on task  0)
  |   Maximum:      615.870 MB (KS_eigenvector_complex on task  1)
  |   Average:      596.570 MB
  Note:  These values currently only include a subset of arrays which are explicitly tracked.
  The "true" memory usage will be greater.
------------------------------------------------------------

------------------------------------------------------------
          Begin self-consistency iteration #   70

  Date     :  20241006, Time     :  233442.153
------------------------------------------------------------
  Pulay mixing of updated and previous charge densities.
  Available memory per node after mixing [GB]:    856.15
  Renormalizing the density to the exact electron count on the 3D integration grid.
  | Formal number of electrons (from input files) :    4032.0000000000
  | Integrated number of electrons on 3D grid     :    4032.0026511961
  | Charge integration error                      :       0.0026511961
  | Normalization factor for density and gradient :       0.9999993425

  Evaluating partitioned Hartree potential by multipole expansion.
  | Original multipole sum: apparent total charge =  -0.160888E-10
  | Sum of charges compensated after spline to logarithmic grids =   0.119053E-02
  | Analytical far-field extrapolation by fixed multipoles:
  | Hartree multipole sum: apparent total charge =  -0.160834E-10
  Summing up the Hartree potential.
  Time summed over all CPUs for potential: real work        2.366 s, elapsed        2.487 s
  | RMS charge density error from multipole expansion :   0.127599E+00
  | Average real-space part of the electrostatic potential :      0.18918668 eV

  Integrating Hamiltonian matrix: batch-based integration.
  Time summed over all CPUs for integration: real work      303.936 s, elapsed      334.464 s

  Updating Kohn-Sham eigenvalues and eigenvectors using ELSI and the (modified) LAPACK eigensolver.

  Obtaining occupation numbers and electronic chemical potential using ELSI.
  | Note that, for insulating systems, the printed 'chemical potential' value is not uniquely defined.
  | It can be anywhere in the energy gap, as long as it correctly separates occupied and unoccupied states.
  | In systems with a gap, the physically relevant chemical potential is the VBM or HOMO.

  | Chemical potential (Fermi level):    -6.78600379 eV
  Current spin moment of the entire structure :
  | N = N_up - N_down (sum over all k points):         0.00000
  | S (sum over all k points)                :         0.00000

  What follows are estimated values for band gap, HOMO, LUMO, etc.
  | They are estimated on a discrete k-point grid and not necessarily exact.
  | For converged numbers, create a DOS and/or band structure plot on a denser k-grid.

  Highest occupied state (VBM) at     -6.79496942 eV (relative to internal zero)
  | Occupation number:      0.60009242
  | K-point:       2 at    0.000000    0.333333    0.000000 (in units of recip. lattice)
  | Spin channel:        2

  Lowest unoccupied state (CBM) at    -6.78112588 eV (relative to internal zero)
  | Occupation number:      0.44513283
  | K-point:       2 at    0.000000    0.333333    0.000000 (in units of recip. lattice)
  | Spin channel:        2

  ESTIMATED overall HOMO-LUMO gap:      0.01384354 eV between HOMO at k-point 2 and LUMO at k-point 2
  | This appears to be a direct band gap.
  However, this system has fractional occupation numbers. Since we use a finite k-point grid,
  this material is metallic within the approximate finite broadening function (occupation_type)
  applied to determine the occupation numbers.

  Total energy components:
  | Sum of eigenvalues            :      -63948.07280588 Ha    -1740115.59715488 eV
  | XC energy correction          :       -6325.32477468 Ha     -172120.84453128 eV
  | XC potential correction       :        8178.59013579 Ha      222550.76085297 eV
  | Free-atom electrostatic energy:      -45875.85724272 Ha    -1248345.59069880 eV
  | Hartree energy correction     :         -97.67117334 Ha       -2657.76785229 eV
  | Entropy correction            :          -0.00480880 Ha          -0.13085404 eV
  | ---------------------------
  | Total energy                  :     -108068.33586083 Ha    -2940689.03938426 eV
  | Total energy, T -> 0          :     -108068.34066963 Ha    -2940689.17023830 eV  <-- do not rely on this value for anything but (periodic) metals
  | Electronic free energy        :     -108068.34547843 Ha    -2940689.30109234 eV

  Derived energy quantities:
  | Kinetic energy                :      108814.74314410 Ha     2960999.81496291 eV
  | Electrostatic energy          :     -210557.75423025 Ha    -5729568.00981589 eV
  | Energy correction for multipole
  | error in Hartree potential    :           1.03947123 Ha          28.28545142 eV
  | Sum of eigenvalues per atom                           :       -5524.17649890 eV
  | Total energy (T->0) per atom                          :       -9335.52117536 eV  <-- do not rely on this value for anything but (periodic) metals
  | Electronic free energy per atom                       :       -9335.52159077 eV
  Evaluating new KS density using the density matrix
  Evaluating density matrix
  Evaluating density matrix
  Time summed over all CPUs for getting density from density matrix: real work      630.138 s, elapsed      660.129 s
  Integration grid: deviation in total charge (<rho> - N_e) =   4.142748E-10
  | <rho_up-rho_dn> = N_up-N_dn =     -0.0000; <|rho_up-rho_dn|> =      0.0000

  Self-consistency convergence accuracy:
  | Change of charge/spin density :  0.4922E-01  0.1638E-06
  | Change of unmixed KS charge/spin density :  0.4589E-01  0.4375E-07
  | Change of sum of eigenvalues  : -0.1383E+02 eV
  | Change of total energy        :  0.1241E-01 eV


------------------------------------------------------------
  End self-consistency iteration #    70       :  max(cpu_time)    wall_clock(cpu1)
  | Time for this iteration                     :      542.515 s         542.534 s
  | Charge density update                       :       40.342 s          40.343 s
  | Density mixing & preconditioning            :       61.390 s          61.392 s
  | Hartree multipole update                    :        0.031 s           0.030 s
  | Hartree multipole summation                 :        2.580 s           2.581 s
  | Integration                                 :       10.758 s          10.758 s
  | Solution of K.-S. eqns.                     :      427.406 s         427.422 s
  | Total energy evaluation                     :        0.000 s           0.000 s

  Partial memory accounting:
  | Current value for overall tracked memory usage:
  |   Minimum:      382.005 MB (on task 17)
  |   Maximum:      997.988 MB (on task  1)
  |   Average:      420.550 MB
  | Peak value for overall tracked memory usage:
  |   Minimum:      990.875 MB (on task 13 after allocating kdm)
  |   Maximum:     3676.956 MB (on task  1 after allocating eval_tmp)
  |   Average:     1159.309 MB
  | Largest tracked array allocation so far:
  |   Minimum:      595.284 MB (KS_eigenvector_complex on task  0)
  |   Maximum:      615.870 MB (KS_eigenvector_complex on task  1)
  |   Average:      596.570 MB
  Note:  These values currently only include a subset of arrays which are explicitly tracked.
  The "true" memory usage will be greater.
------------------------------------------------------------

------------------------------------------------------------
          Begin self-consistency iteration #   71

  Date     :  20241006, Time     :  234344.688
------------------------------------------------------------
  Pulay mixing of updated and previous charge densities.
  Available memory per node after mixing [GB]:    657.94
  Renormalizing the density to the exact electron count on the 3D integration grid.
  | Formal number of electrons (from input files) :    4032.0000000000
  | Integrated number of electrons on 3D grid     :    4032.0112658574
  | Charge integration error                      :       0.0112658574
  | Normalization factor for density and gradient :       0.9999972059

  Evaluating partitioned Hartree potential by multipole expansion.
  | Original multipole sum: apparent total charge =  -0.242488E-10
  | Sum of charges compensated after spline to logarithmic grids =   0.118197E-02
  | Analytical far-field extrapolation by fixed multipoles:
  | Hartree multipole sum: apparent total charge =  -0.242438E-10
  Summing up the Hartree potential.
  Time summed over all CPUs for potential: real work        2.404 s, elapsed        2.600 s
  | RMS charge density error from multipole expansion :   0.126731E+00
  | Average real-space part of the electrostatic potential :      0.18828023 eV

  Integrating Hamiltonian matrix: batch-based integration.
  Time summed over all CPUs for integration: real work      263.929 s, elapsed      283.208 s

  Updating Kohn-Sham eigenvalues and eigenvectors using ELSI and the (modified) LAPACK eigensolver.
