------------------------------------------------------------
          Invoking FHI-aims ...

          When using FHI-aims, please cite the following reference:

            Volker Blum, Ralf Gehrke, Felix Hanke, Paula Havu,
            Ville Havu, Xinguo Ren, Karsten Reuter, and Matthias Scheffler,
            'Ab Initio Molecular Simulations with Numeric Atom-Centered Orbitals',
            Computer Physics Communications 180, 2175-2196 (2009)

          In addition, many other developments in FHI-aims are likely important for
          your particular application. If so, please cite them. A partial list of references
          is written at the end of this file. Thank you for giving credit to the authors
          of these developments.

          For general information about FHI-aims please find us at

            https://fhi-aims.org

          Online tutorials can be found at

            https://fhi-aims-club.gitlab.io/tutorials/tutorials-overview/

          For any questions about FHI-aims, please visit our slack channel at

            https://fhi-aims.slack.com

          and our main development and support site at

            https://aims-git.rz-berlin.mpg.de .

          The latter site, in particular, has a wiki to collect information, as well
          as an issue tracker to log discussions, suggest improvements, and report issues
          or bugs. https://aims-git.rz-berlin.mpg.de is also the main development site
          of the project and all new and updated code versions can be obtained there.
          Please send an email to aims-coordinators@fhi-berlin.mpg.de and we will add
          you to these sites. They are for you and everyone is welcome there.

------------------------------------------------------------



  Date     :  20250324, Time     :  155931.960
  Time zero on CPU 1             :   0.567484000000000E+00  s.
  Internal wall clock time zero  :           512063971.960  s.

  FHI-aims created a unique identifier for this run for later identification
  aims_uuid : EA122F6E-FB21-4D94-A24B-357D8863C88A

  Build configuration of the current instance of FHI-aims
  -------------------------------------------------------
  FHI-aims version      : 240605
  Commit number         : b001b2e18
  CMake host system     : Linux-6.5.0-41-generic
  CMake version         : 3.22.1
  Fortran compiler      : /opt/intel/oneapi/mpi/2021.12/bin/mpiifort (IntelLLVM) version 2024.1.0
  Fortran compiler flags: -fc=ifx -O3 -ip -fp-model precise
  C compiler            : /opt/intel/oneapi/mpi/2021.12/bin/mpiicc (IntelLLVM) version 2024.1.0
  C compiler flags      : -cc=icx -O3 -ip -fp-model precise -std=gnu99
  C++ compiler          : /opt/intel/oneapi/mpi/2021.12/bin/mpiicpc (IntelLLVM) version 2024.1.0
  C++ compiler flags    : -cxx=icpx -O3 -ip -fp-model precise -std=c++11
  HIP compiler          :
  HIP compiler flags    :
  HIP GPU arch          :
  Using MPI
  Using ScaLAPACK
  Using LibXC
  Using i-PI
  Using RLSY
  Linking against: /opt/intel/oneapi/mkl/2024.1/lib/intel64/libmkl_intel_lp64.so
                   /opt/intel/oneapi/mkl/2024.1/lib/intel64/libmkl_sequential.so
                   /opt/intel/oneapi/mkl/2024.1/lib/intel64/libmkl_core.so
                   /opt/intel/oneapi/mkl/2024.1/lib/intel64/libmkl_blacs_intelmpi_lp64.so
                   /opt/intel/oneapi/mkl/2024.1/lib/intel64/libmkl_scalapack_lp64.so
                   /opt/intel/oneapi/mkl/2024.1/lib/intel64/libmkl_core.so

  Using       32 parallel tasks.
  Task        0 on host RSL-arvutus reporting.
  Task        1 on host RSL-arvutus reporting.
  Task        2 on host RSL-arvutus reporting.
  Task        3 on host RSL-arvutus reporting.
  Task        4 on host RSL-arvutus reporting.
  Task        5 on host RSL-arvutus reporting.
  Task        6 on host RSL-arvutus reporting.
  Task        7 on host RSL-arvutus reporting.
  Task        8 on host RSL-arvutus reporting.
  Task        9 on host RSL-arvutus reporting.
  Task       10 on host RSL-arvutus reporting.
  Task       11 on host RSL-arvutus reporting.
  Task       12 on host RSL-arvutus reporting.
  Task       13 on host RSL-arvutus reporting.
  Task       14 on host RSL-arvutus reporting.
  Task       15 on host RSL-arvutus reporting.
  Task       16 on host RSL-arvutus reporting.
  Task       17 on host RSL-arvutus reporting.
  Task       18 on host RSL-arvutus reporting.
  Task       19 on host RSL-arvutus reporting.
  Task       20 on host RSL-arvutus reporting.
  Task       21 on host RSL-arvutus reporting.
  Task       22 on host RSL-arvutus reporting.
  Task       23 on host RSL-arvutus reporting.
  Task       24 on host RSL-arvutus reporting.
  Task       25 on host RSL-arvutus reporting.
  Task       26 on host RSL-arvutus reporting.
  Task       27 on host RSL-arvutus reporting.
  Task       28 on host RSL-arvutus reporting.
  Task       29 on host RSL-arvutus reporting.
  Task       30 on host RSL-arvutus reporting.
  Task       31 on host RSL-arvutus reporting.

  Memory overcommitment is allowed on your operating system.

  Obtaining array dimensions for all initial allocations:
  
  -----------------------------------------------------------------------
  Parsing control.in (first pass over file, find array dimensions only).
  The contents of control.in will be repeated verbatim below
  unless switched off by setting 'verbatim_writeout .false.' .
  in the first line of control.in .
  -----------------------------------------------------------------------
  
    xc              pbe
    relativistic    zora scalar 1.0e-12
    k_grid          8 8 1
  
    spin            collinear
    default_initial_moment        0.0
  
    charge	  1.0
    output          Mulliken
  
  
  ################################################################################
  #
  #  FHI-aims code project
  #  VB, Fritz-Haber Institut, 2009
  #
  #  Suggested "light" defaults for Ti atom (to be pasted into control.in file)
  #  Be sure to double-check any results obtained with these settings for post-processing,
  #  e.g., with the "tight" defaults and larger basis sets.
  #
  ################################################################################
    species        Ti
  #     global species definitions
      nucleus             22
      mass                47.867
  #
      l_hartree           4
  #
      cut_pot             3.5          1.5  1.0
      basis_dep_cutoff    1e-4
  #
      radial_base         48 5.0
      radial_multiplier   1
      angular_grids       specified
        division   0.5171   50
        division   0.9824  110
        division   1.2917  194
        division   1.4940  302
  #      division   1.6934  434
  #      division   1.8425  590
  #      division   2.1901  770
  #      division   2.2896  974
  #      division   2.8244 1202
  #      outer_grid  974
        outer_grid  302
  ################################################################################
  #
  #  Definition of "minimal" basis
  #
  ################################################################################
  #     valence basis states
      valence      4  s   2.
      valence      3  p   6.
      valence      3  d   2.
  #     ion occupancy
      ion_occ      4  s   1.
      ion_occ      3  p   6.
      ion_occ      3  d   1.
  ################################################################################
  #
  #  Suggested additional basis functions. For production calculations,
  #  uncomment them one after another (the most important basis functions are
  #  listed first).
  #
  #  Constructed for dimers: 1.6 A, 1.85 A, 2.5 A, 3.25 A, 4.25 A
  #
  ################################################################################
  #  "First tier" - improvements: -396.25 meV to -19.41 meV
       hydro 4 f 8
       hydro 3 d 2.7
       ionic 4 p auto
  #     hydro 5 g 11.6
       ionic 4 s auto
  #  "Second tier" - improvements: -16.30 meV to -2.03 meV
  #     hydro 3 d 4.4
  #     hydro 6 h 16
  #     hydro 4 f 9.4
  #     hydro 4 p 4.5
  #     hydro 1 s 0.5
  #  "Third tier" - improvements: -6.28 meV to -0.37 meV
  #     hydro 4 d 6.4
  #     hydro 4 f 10
  #     hydro 5 g 12
  #     hydro 2 p 1.7
  #     hydro 6 h 16.4
  #     hydro 4 s 3.8
  #  Further basis functions: -0.45 meV and smaller improvements
  #     hydro 3 d 8.8
  #     hydro 5 p 18
  #     hydro 4 f 22.4
  #     hydro 5 f 7.2  # -0.16 meV
  #     hydro 3 d 2.1  # -0.11 meV
  #     hydro 5 g 7.4  # -0.09 meV
  
  
  ################################################################################
  #
  #  FHI-aims code project
  #  VB, Fritz-Haber Institut, 2009
  #
  #  Suggested "light" defaults for O atom (to be pasted into control.in file)
  #  Be sure to double-check any results obtained with these settings for post-processing,
  #  e.g., with the "tight" defaults and larger basis sets.
  #
  ################################################################################
    species        O
  #     global species definitions
      nucleus             8
      mass                15.9994
  #
      l_hartree           4
  #
      cut_pot             3.5  1.5  1.0
      basis_dep_cutoff    1e-4
  #
      radial_base         36 5.0
      radial_multiplier   1
       angular_grids specified
        division   0.2659   50
        division   0.4451  110
        division   0.6052  194
        division   0.7543  302
  #      division   0.8014  434
  #      division   0.8507  590
  #      division   0.8762  770
  #      division   0.9023  974
  #      division   1.2339 1202
  #      outer_grid 974
        outer_grid 302
  ################################################################################
  #
  #  Definition of "minimal" basis
  #
  ################################################################################
  #     valence basis states
      valence      2  s   2.
      valence      2  p   4.
  #     ion occupancy
      ion_occ      2  s   1.
      ion_occ      2  p   3.
  ################################################################################
  #
  #  Suggested additional basis functions. For production calculations,
  #  uncomment them one after another (the most important basis functions are
  #  listed first).
  #
  #  Constructed for dimers: 1.0 A, 1.208 A, 1.5 A, 2.0 A, 3.0 A
  #
  ################################################################################
  #  "First tier" - improvements: -699.05 meV to -159.38 meV
       hydro 2 p 1.8
       hydro 3 d 7.6
       hydro 3 s 6.4
  #  "Second tier" - improvements: -49.91 meV to -5.39 meV
  #     hydro 4 f 11.6
  #     hydro 3 p 6.2
  #     hydro 3 d 5.6
  #     hydro 5 g 17.6
  #     hydro 1 s 0.75
  #  "Third tier" - improvements: -2.83 meV to -0.50 meV
  #     ionic 2 p auto
  #     hydro 4 f 10.8
  #     hydro 4 d 4.7
  #     hydro 2 s 6.8
  #  "Fourth tier" - improvements: -0.40 meV to -0.12 meV
  #     hydro 3 p 5
  #     hydro 3 s 3.3
  #     hydro 5 g 15.6
  #     hydro 4 f 17.6
  #     hydro 4 d 14
  # Further basis functions - -0.08 meV and below
  #     hydro 3 s 2.1
  #     hydro 4 d 11.6
  #     hydro 3 p 16
  #     hydro 2 s 17.2
  ################################################################################
  #
  #  FHI-aims code project
  #  VB, Fritz-Haber Institut, 2009
  #
  #  Suggested "light" defaults for F atom (to be pasted into control.in file)
  #  Be sure to double-check any results obtained with these settings for post-processing,
  #  e.g., with the "tight" defaults and larger basis sets.
  #
  ################################################################################
    species        F
  #     global species definitions
      nucleus             9
      mass                18.9984032
  #
      l_hartree           4
  #
      cut_pot             3.5  1.5  1.0
      basis_dep_cutoff    1e-4
  #
      radial_base         37 5.0
      radial_multiplier   1
      angular_grids specified
        division   0.4014  110
        division   0.5291  194
        division   0.6019  302
  #      division   0.6814  434
  #      division   0.7989  590
  #      division   0.8965  770
  #      division   1.3427  974
  #      outer_grid   974
        outer_grid   302
  ################################################################################
  #
  #  Definition of "minimal" basis
  #
  ################################################################################
  #     valence basis states
      valence      2  s   2.
      valence      2  p   5.
  #     ion occupancy
      ion_occ      2  s   1.
      ion_occ      2  p   4.
  ################################################################################
  #
  #  Suggested additional basis functions. For production calculations,
  #  uncomment them one after another (the most important basis functions are
  #  listed first).
  #
  #  Constructed for dimers: 1.2 A, 1.418 A, 1.75 A, 2.25 A, 3.25 A
  #
  ################################################################################
  #  "First tier" - improvements: -149.44 meV to -45.88 meV
       hydro 2 p 1.7
       hydro 3 d 7.4
       hydro 3 s 6.8
  #  "Second tier" - improvements: -12.96 meV to -1.56 meV
  #     hydro 4 f 11.2
  #     ionic 2 p auto
  #     hydro 1 s 0.75
  #     hydro 4 d 8.8
  #     hydro 5 g 16.8
  #  "Third tier" - improvements: -0.58 meV to -0.05 meV
  #     hydro 3 p 6.2
  #     hydro 3 s 3.2
  #     hydro 4 f 9.6
  #     hydro 3 s 19.6
  #     hydro 4 d 8.6
  #     hydro 5 g 14.4
  # Further basis functions: -0.05 meV and below
  #     hydro 3 p 4.2
  
  -----------------------------------------------------------------------
  Completed first pass over input file control.in .
  -----------------------------------------------------------------------
  
  
  -----------------------------------------------------------------------
  Parsing geometry.in (first pass over file, find array dimensions only).
  The contents of geometry.in will be repeated verbatim below
  unless switched off by setting 'verbatim_writeout .false.' .
  in the first line of geometry.in .
  -----------------------------------------------------------------------
  
  lattice_vector 6.566127 0.000000 0.000000
  lattice_vector 0.000000 5.945766 0.000000
  lattice_vector 0.000000 0.000000 22.332457
  
  atom_frac 0.999994 0.000000 0.368597 O
  atom_frac 0.305556 0.250000 0.425767 O
  atom_frac 0.499997 0.000000 0.425768 Ti
  atom_frac 0.999997 0.250000 0.425768 Ti
  atom_frac 0.694439 0.250000 0.425769 O
  atom_frac 0.000001 0.000000 0.482939 O
  atom_frac 0.499991 0.000000 0.515613 O
  atom_frac 0.805553 0.250000 0.572783 F
  atom_frac 0.999995 0.000000 0.572784 Ti
  atom_frac 0.499995 0.250000 0.572784 Ti
  atom_frac 0.194436 0.250000 0.572786 O
  atom_frac 0.499998 0.000000 0.629955 O
  atom_frac 0.999994 0.500000 0.368597 O
  atom_frac 0.305556 0.750000 0.425767 O
  atom_frac 0.499997 0.500000 0.425768 Ti
  atom_frac 0.999997 0.750000 0.425768 Ti
  atom_frac 0.694439 0.750000 0.425769 O
  atom_frac 0.000001 0.500000 0.482939 O
  atom_frac 0.499991 0.500000 0.515613 O
  atom_frac 0.805553 0.750000 0.572783 O
  atom_frac 0.999995 0.500000 0.572784 Ti
  atom_frac 0.499995 0.750000 0.572784 Ti
  atom_frac 0.194436 0.750000 0.572786 O
  atom_frac 0.499998 0.500000 0.629955 O
  
  -----------------------------------------------------------------------
  Completed first pass over input file geometry.in .
  -----------------------------------------------------------------------
  

  Basic array size parameters:
  | Number of species                 :        3
  | Number of atoms                   :       24
  | Number of lattice vectors         :        3
  | Max. basis fn. angular momentum   :        3
  | Max. atomic/ionic basis occupied n:        4
  | Max. number of basis fn. types    :        3
  | Max. radial fns per species/type  :        7
  | Max. logarithmic grid size        :     1383
  | Max. radial integration grid size :       48
  | Max. angular integration grid size:      302
  | Max. angular grid division number :        8
  | Radial grid for Hartree potential :     1383
  | Number of spin channels           :        2

------------------------------------------------------------
          Reading file control.in.
------------------------------------------------------------
  XC: Using PBE gradient-corrected functionals.
  Scalar relativistic treatment of kinetic energy: ZORA.
  Threshold value for ZORA:   0.100000E-11
  Found k-point grid:         8         8         1
  Spin treatment: Spin density functional theory - collinear spins.
  Initial spin moment per atom:   0.0000
  Charged system requested: Charge =   0.100000E+01.
  Mulliken charge analysis will be performed and summarised to the main output.
  Full Mulliken charge analysis will be written to file 'Mulliken.out'.
 
  Reading configuration options for species Ti                  .
  | Found nuclear charge :  22.0000
  | Found atomic mass :    47.8670000000000      amu
  | Found l_max for Hartree potential  :   4
  | Found cutoff potl. onset [A], width [A], scale factor :    3.50000    1.50000    1.00000
  | Threshold for basis-dependent cutoff potential is   0.100000E-03
  | Found data for basic radial integration grid :    48 points, outermost radius =    5.000 A
  | Found multiplier for basic radial grid :   1
  | Found angular grid specification: user-specified.
  | Specified grid contains     5 separate shells.
  | Check grid settings after all constraints further below.
  | Found free-atom valence shell :  4 s   2.000
  | Found free-atom valence shell :  3 p   6.000
  | Found free-atom valence shell :  3 d   2.000
  | Found free-ion valence shell :  4 s   1.000
  | Found free-ion valence shell :  3 p   6.000
  | Found free-ion valence shell :  3 d   1.000
  | Found hydrogenic basis function :  4 f   8.000
  | Found hydrogenic basis function :  3 d   2.700
  | Found ionic basis function :  4 p , default cutoff radius.
  | Found ionic basis function :  4 s , default cutoff radius.
 | Encountered keyword species, ending the description of species Ti                  .
  Species Ti                  : Missing cutoff potential type.
  Defaulting to exp(1/x)/(1-x)^2 type cutoff potential.
  Species Ti: No 'logarithmic' tag. Using default grid for free atom:
  | Default logarithmic grid data [bohr] : 0.1000E-03 0.1000E+03 0.1012E+01
  | Will include ionic basis functions of  2.0-fold positive Ti                   ion.
  Species Ti: On-site basis accuracy parameter (for Gram-Schmidt orthonormalisation) not specified.
  Using default value basis_acc =  0.1000000E-03.
  Species Ti                  : Using default innermost maximum threshold i_radial=  2 for radial functions.
  Species Ti                  : Default cutoff onset for free atom density etc. : 0.35000000E+01 AA.
  Species Ti                  : Basic radial grid will be enhanced according to radial_multiplier =   1, to contain    48 grid points.
 
  Reading configuration options for species O                   .
  | Found nuclear charge :   8.0000
  | Found atomic mass :    15.9994000000000      amu
  | Found l_max for Hartree potential  :   4
  | Found cutoff potl. onset [A], width [A], scale factor :    3.50000    1.50000    1.00000
  | Threshold for basis-dependent cutoff potential is   0.100000E-03
  | Found data for basic radial integration grid :    36 points, outermost radius =    5.000 A
  | Found multiplier for basic radial grid :   1
  | Found angular grid specification: user-specified.
  | Specified grid contains     5 separate shells.
  | Check grid settings after all constraints further below.
  | Found free-atom valence shell :  2 s   2.000
  | Found free-atom valence shell :  2 p   4.000
  | Found free-ion valence shell :  2 s   1.000
  | Found free-ion valence shell :  2 p   3.000
  | Found hydrogenic basis function :  2 p   1.800
  | Found hydrogenic basis function :  3 d   7.600
  | Found hydrogenic basis function :  3 s   6.400
 | Encountered keyword species, ending the description of species O                   .
  Species O                   : Missing cutoff potential type.
  Defaulting to exp(1/x)/(1-x)^2 type cutoff potential.
  Species O : No 'logarithmic' tag. Using default grid for free atom:
  | Default logarithmic grid data [bohr] : 0.1000E-03 0.1000E+03 0.1012E+01
  Species O : On-site basis accuracy parameter (for Gram-Schmidt orthonormalisation) not specified.
  Using default value basis_acc =  0.1000000E-03.
  Species O                   : Using default innermost maximum threshold i_radial=  2 for radial functions.
  Species O                   : Default cutoff onset for free atom density etc. : 0.35000000E+01 AA.
  Species O                   : Basic radial grid will be enhanced according to radial_multiplier =   1, to contain    36 grid points.
 
  Reading configuration options for species F                   .
  | Found nuclear charge :   9.0000
  | Found atomic mass :    18.9984032000000      amu
  | Found l_max for Hartree potential  :   4
  | Found cutoff potl. onset [A], width [A], scale factor :    3.50000    1.50000    1.00000
  | Threshold for basis-dependent cutoff potential is   0.100000E-03
  | Found data for basic radial integration grid :    37 points, outermost radius =    5.000 A
  | Found multiplier for basic radial grid :   1
  | Found angular grid specification: user-specified.
  | Specified grid contains     4 separate shells.
  | Check grid settings after all constraints further below.
  | Found free-atom valence shell :  2 s   2.000
  | Found free-atom valence shell :  2 p   5.000
  | Found free-ion valence shell :  2 s   1.000
  | Found free-ion valence shell :  2 p   4.000
  | Found hydrogenic basis function :  2 p   1.700
  | Found hydrogenic basis function :  3 d   7.400
  | Found hydrogenic basis function :  3 s   6.800
  Species F                   : Missing cutoff potential type.
  Defaulting to exp(1/x)/(1-x)^2 type cutoff potential.
  Species F : No 'logarithmic' tag. Using default grid for free atom:
  | Default logarithmic grid data [bohr] : 0.1000E-03 0.1000E+03 0.1012E+01
  Species F : On-site basis accuracy parameter (for Gram-Schmidt orthonormalisation) not specified.
  Using default value basis_acc =  0.1000000E-03.
  Species F                   : Using default innermost maximum threshold i_radial=  2 for radial functions.
  Species F                   : Default cutoff onset for free atom density etc. : 0.35000000E+01 AA.
  Species F                   : Basic radial grid will be enhanced according to radial_multiplier =   1, to contain    37 grid points.
 
  Finished reading input file 'control.in'.
 
------------------------------------------------------------


------------------------------------------------------------
          Reading geometry description geometry.in.
------------------------------------------------------------
  | The smallest distance between any two atoms is         1.95947270 AA.
  | The first atom of this pair is atom number                      2 .
  | The second atom of this pair is atom number                     3 .
  | Wigner-Seitz cell of the first atom image           0     0     0 .
  | (The Wigner-Seitz cell of the second atom is 0 0 0  by definition.)

  Symmetry information by spglib:
  | Precision set to  0.1E-04
  | Number of Operations  : 2
  | Space group           : 6
  | International         : Pm      /op
  | Schoenflies           : Cs^1
  Input structure read successfully.
  The structure contains       24 atoms,  and a total of        304.000 electrons.

  Input geometry:
  | Unit cell:
  |        6.56612700        0.00000000        0.00000000
  |        0.00000000        5.94576600        0.00000000
  |        0.00000000        0.00000000       22.33245700
  | Atomic structure:
  |       Atom                x [A]            y [A]            z [A]
  |    1: Species O             6.56608760        0.00000000        8.23167665
  |    2: Species O             2.00631950        1.48644150        9.50842322
  |    3: Species Ti            3.28304380        0.00000000        9.50844555
  |    4: Species Ti            6.56610730        1.48644150        9.50844555
  |    5: Species O             4.55977467        1.48644150        9.50846788
  |    6: Species O             0.00000657        0.00000000       10.78521445
  |    7: Species O             3.28300440        0.00000000       11.51490515
  |    8: Species F             5.28936330        1.48644150       12.79165172
  |    9: Species Ti            6.56609417        0.00000000       12.79167405
  |   10: Species Ti            3.28303067        1.48644150       12.79167405
  |   11: Species O             1.27669147        1.48644150       12.79171872
  |   12: Species O             3.28305037        0.00000000       14.06844295
  |   13: Species O             6.56608760        2.97288300        8.23167665
  |   14: Species O             2.00631950        4.45932450        9.50842322
  |   15: Species Ti            3.28304380        2.97288300        9.50844555
  |   16: Species Ti            6.56610730        4.45932450        9.50844555
  |   17: Species O             4.55977467        4.45932450        9.50846788
  |   18: Species O             0.00000657        2.97288300       10.78521445
  |   19: Species O             3.28300440        2.97288300       11.51490515
  |   20: Species O             5.28936330        4.45932450       12.79165172
  |   21: Species Ti            6.56609417        2.97288300       12.79167405
  |   22: Species Ti            3.28303067        4.45932450       12.79167405
  |   23: Species O             1.27669147        4.45932450       12.79171872
  |   24: Species O             3.28305037        2.97288300       14.06844295

  Lattice parameters for 3D lattice (in Angstroms) :     6.566127    5.945766   22.332457
  Angle(s) between unit vectors (in degrees)       :    90.000000   90.000000   90.000000


  Quantities derived from the lattice vectors (in Angstrom^-1):
  | Reciprocal lattice vector 1:  0.956909  0.000000  0.000000
  | Reciprocal lattice vector 2:  0.000000  1.056750  0.000000
  | Reciprocal lattice vector 3:  0.000000  0.000000  0.281348
  | Unit cell volume                               :   0.871874E+03  Angstrom^3

  Fractional coordinates:
                         L1                L2                L3
       atom_frac         0.99999400        0.00000000        0.36859700  O
       atom_frac         0.30555600        0.25000000        0.42576700  O
       atom_frac         0.49999700        0.00000000        0.42576800  Ti
       atom_frac         0.99999700        0.25000000        0.42576800  Ti
       atom_frac         0.69443900        0.25000000        0.42576900  O
       atom_frac         0.00000100        0.00000000        0.48293900  O
       atom_frac         0.49999100        0.00000000        0.51561300  O
       atom_frac         0.80555300        0.25000000        0.57278300  F
       atom_frac         0.99999500        0.00000000        0.57278400  Ti
       atom_frac         0.49999500        0.25000000        0.57278400  Ti
       atom_frac         0.19443600        0.25000000        0.57278600  O
       atom_frac         0.49999800        0.00000000        0.62995500  O
       atom_frac         0.99999400        0.50000000        0.36859700  O
       atom_frac         0.30555600        0.75000000        0.42576700  O
       atom_frac         0.49999700        0.50000000        0.42576800  Ti
       atom_frac         0.99999700        0.75000000        0.42576800  Ti
       atom_frac         0.69443900        0.75000000        0.42576900  O
       atom_frac         0.00000100        0.50000000        0.48293900  O
       atom_frac         0.49999100        0.50000000        0.51561300  O
       atom_frac         0.80555300        0.75000000        0.57278300  O
       atom_frac         0.99999500        0.50000000        0.57278400  Ti
       atom_frac         0.49999500        0.75000000        0.57278400  Ti
       atom_frac         0.19443600        0.75000000        0.57278600  O
       atom_frac         0.49999800        0.50000000        0.62995500  O

  Initial moments and charges:
  |  Atom   Moment         Charge        Species
  |     1   0.000000E+00   0.000000E+00   O
  |     2   0.000000E+00   0.000000E+00   O
  |     3   0.000000E+00   0.000000E+00   Ti
  |     4   0.000000E+00   0.000000E+00   Ti
  |     5   0.000000E+00   0.000000E+00   O
  |     6   0.000000E+00   0.000000E+00   O
  |     7   0.000000E+00   0.000000E+00   O
  |     8   0.000000E+00   0.000000E+00   F
  |     9   0.000000E+00   0.000000E+00   Ti
  |    10   0.000000E+00   0.000000E+00   Ti
  |    11   0.000000E+00   0.000000E+00   O
  |    12   0.000000E+00   0.000000E+00   O
  |    13   0.000000E+00   0.000000E+00   O
  |    14   0.000000E+00   0.000000E+00   O
  |    15   0.000000E+00   0.000000E+00   Ti
  |    16   0.000000E+00   0.000000E+00   Ti
  |    17   0.000000E+00   0.000000E+00   O
  |    18   0.000000E+00   0.000000E+00   O
  |    19   0.000000E+00   0.000000E+00   O
  |    20   0.000000E+00   0.000000E+00   O
  |    21   0.000000E+00   0.000000E+00   Ti
  |    22   0.000000E+00   0.000000E+00   Ti
  |    23   0.000000E+00   0.000000E+00   O
  |    24   0.000000E+00   0.000000E+00   O

  Slab Identifier: This is Z-oriented slab and maximum thickness of the vacuum is: 16.496 Angstrom.
 
  Finished reading input file 'geometry.in'.
 

 
  Consistency checks for stacksize environment parameter are next.
 
  | Maximum stacksize for task 0: unlimited
  | Maximum stacksize for task 1: unlimited
  | Maximum stacksize for task 2: unlimited
  | Maximum stacksize for task 3: unlimited
  | Maximum stacksize for task 4: unlimited
  | Maximum stacksize for task 5: unlimited
  | Maximum stacksize for task 6: unlimited
  | Maximum stacksize for task 7: unlimited
  | Maximum stacksize for task 8: unlimited
  | Maximum stacksize for task 9: unlimited
  | Maximum stacksize for task 10: unlimited
  | Maximum stacksize for task 11: unlimited
  | Maximum stacksize for task 12: unlimited
  | Maximum stacksize for task 13: unlimited
  | Maximum stacksize for task 14: unlimited
  | Maximum stacksize for task 15: unlimited
  | Maximum stacksize for task 16: unlimited
  | Maximum stacksize for task 17: unlimited
  | Maximum stacksize for task 18: unlimited
  | Maximum stacksize for task 19: unlimited
  | Maximum stacksize for task 20: unlimited
  | Maximum stacksize for task 21: unlimited
  | Maximum stacksize for task 22: unlimited
  | Maximum stacksize for task 23: unlimited
  | Maximum stacksize for task 24: unlimited
  | Maximum stacksize for task 25: unlimited
  | Maximum stacksize for task 26: unlimited
  | Maximum stacksize for task 27: unlimited
  | Maximum stacksize for task 28: unlimited
  | Maximum stacksize for task 29: unlimited
  | Maximum stacksize for task 30: unlimited
  | Maximum stacksize for task 31: unlimited
  | Current stacksize for task 0: unlimited
  | Current stacksize for task 1: unlimited
  | Current stacksize for task 2: unlimited
  | Current stacksize for task 3: unlimited
  | Current stacksize for task 4: unlimited
  | Current stacksize for task 5: unlimited
  | Current stacksize for task 6: unlimited
  | Current stacksize for task 7: unlimited
  | Current stacksize for task 8: unlimited
  | Current stacksize for task 9: unlimited
  | Current stacksize for task 10: unlimited
  | Current stacksize for task 11: unlimited
  | Current stacksize for task 12: unlimited
  | Current stacksize for task 13: unlimited
  | Current stacksize for task 14: unlimited
  | Current stacksize for task 15: unlimited
  | Current stacksize for task 16: unlimited
  | Current stacksize for task 17: unlimited
  | Current stacksize for task 18: unlimited
  | Current stacksize for task 19: unlimited
  | Current stacksize for task 20: unlimited
  | Current stacksize for task 21: unlimited
  | Current stacksize for task 22: unlimited
  | Current stacksize for task 23: unlimited
  | Current stacksize for task 24: unlimited
  | Current stacksize for task 25: unlimited
  | Current stacksize for task 26: unlimited
  | Current stacksize for task 27: unlimited
  | Current stacksize for task 28: unlimited
  | Current stacksize for task 29: unlimited
  | Current stacksize for task 30: unlimited
  | Current stacksize for task 31: unlimited
 
  Consistency checks for the contents of control.in are next.
 
  MPI_IN_PLACE appears to work with this MPI implementation.
  | Keeping use_mpi_in_place .true. (see manual).
  Target number of points in a grid batch is not set. Defaulting to  100
  Method for grid partitioning is not set. Defaulting to parallel hash+maxmin partitioning.
  Batch size limit is not set. Defaulting to    200
  By default, will store active basis functions for each batch.
  If in need of memory, prune_basis_once .false. can be used to disable this option.
  communication_type for Hartree potential was not specified.
  Defaulting to calc_hartree .
  Defaulting to Pulay charge density mixer.
  Pulay mixer: Number of relevant iterations not set.
  Defaulting to    8 iterations.
  Pulay mixer: Number of initial linear mixing iterations not set.
  Defaulting to    0 iterations.
  Work space size for distributed Hartree potential not set.
  Defaulting to   0.200000E+03 MB.
  Mixing parameter for charge density mixing has not been set.
  Using default: charge_mix_param =     0.0500.
  The mixing parameter will be adjusted in iteration number     2 of each s.c.f. cycle (i.e., each geometry step).
  Mixing parameter for spin density mixing has not been set.
  Using charge_mix_param as default:     0.0500.
  Algorithm-dependent basis array size parameters:
  | n_max_pulay                         :        8
  Maximum number of self-consistency iterations not provided.
  Presetting  1000 iterations.
  Presetting      1001 iterations before the initial mixing cycle
  is restarted anyway using the sc_init_iter criterion / keyword.
  Presetting a factor      1.000 between actual scf density residual
  and density convergence criterion sc_accuracy_rho below which sc_init_iter
  takes no effect.
 * No s.c.f. convergence criteria (sc_accuracy_*) were provided in control.in.
 * The run will proceed with a reasonable default guess, but please check whether.
 * the s.c.f. cycles seem to take too much or too little time.
  Calculation of forces was not defined in control.in. No forces will be calculated.
  Geometry relaxation not requested: no relaxation will be performed.
 * Notice: The s.c.f. convergence criterion sc_accuracy_rho was not provided.
 * We used to stop in this case, and ask the user to provide reasonable
 * scf convergence criteria. However, this led some users to employ criteria
 * that led to extremely long run times, e.g., for simple relaxation.
 * We now preset a default value for sc_accuracy_rho if it is not set.
 * You may still wish to check if this setting is too tight or too loose for your needs.
 * Based on n_atoms and forces and force-correction status, FHI-aims chose sc_accuracy_rho =  0.200000E-05 .
  No accuracy limit for integral partition fn. given. Defaulting to  0.1000E-14.
  No threshold value for u(r) in integrations given. Defaulting to  0.1000E-05.
  No occupation type (smearing scheme) given. Defaulting to Gaussian broadening, width =  0.1000E-01 eV.
  The width will be adjusted in iteration number     2 of each s.c.f. cycle (i.e., each geometry step).
  No accuracy for occupation numbers given. Defaulting to  0.1000E-12.
  No threshold value for occupation numbers given. Defaulting to  0.0000E+00.
  No accuracy for fermi level given. Defaulting to  0.1000E-19.
  Maximum # of iterations to find E_F not set. Defaulting to  200.
  Preferred method for the eigenvalue solver ('KS_method') not specified in 'control.in'.
  Defaulting to serial version, LAPACK (via ELSI), since more k-points than CPUs available.
  Will not use alltoall communication since running on < 1024 CPUs.
  Threshold for basis singularities not set.
  Default threshold for basis singularities:  0.1000E-04
  partition_type (choice of integration weights) for integrals was not specified.
  | Using a version of the partition function of Stratmann and coworkers ('stratmann_sparse').
  | At each grid point, the set of atoms used to build the partition table is smoothly restricted to
  | only those atoms whose free-atom density would be non-zero at that grid point.
  Partitioning for Hartree potential was not defined. Using partition_type for integrals.
  | Adjusted default value of keyword multip_moments_threshold to:       0.10000000E-11
  | This value may affect high angular momentum components of the Hartree potential in periodic systems.
  Angular momentum expansion for Kerker preconditioner not set explicitly.
  | Using default value of   0
  No explicit requirement for turning off preconditioner.
  | By default, it will be turned off when the charge convergence reaches
  | sc_accuracy_rho  =   0.200000E-05
  No special mixing parameter while Kerker preconditioner is on.
  Using default: charge_mix_param =     0.0500.
  No q(lm)/r^(l+1) cutoff set for long-range Hartree potential.
  | Using default value of  0.100000E-09 .
  | Verify using the multipole_threshold keyword.
  Defaulting to new monopole extrapolation.
  Density update method: automatic selection selected.
  Using density matrix based charge density update.
  Using density matrix based charge density update.
  Using packed matrix style: index .
  Defaulting to use time-reversal symmetry for k-point grid.
  Charge integration errors on the 3D integration grid will be compensated
  by explicit normalization and distribution of residual charges.
  Use the "compensate_multipole_errors" flag to change this behaviour.
  Set 'collect_eigenvectors' to be '.true.' for all serial calculations. This is mandatory.
  Set 'collect_eigenvectors' to be '.true.' for KS_method lapack_fast and serial.
  Found potential conflicts with setting 'use_local_index' for this calculation. Will not set it.
 
  Consistency checks for the contents of geometry.in are next.
 

  Range separation radius for Ewald summation (hartree_convergence_parameter):      4.81466675 bohr.
 * Warning: Initial charge and total charge of the system are inconsistent.
 * Selected charge in control.in:     1.0000* Sum of initial charges in geometry.in:     0.0000
  Number of empty states per atom not set in control.in - providing a guess from actual geometry.
  | Total number of empty states used during s.c.f. cycle:       92
  If you use a very high smearing, use empty_states (per atom!) in control.in to increase this value.

  Structure-dependent array size parameters: 
  | Number of distinct atom types in initial rho :        3
  | Maximum number of distinct radial functions  :       23
  | Maximum number of basis functions            :      472
  | Number of Kohn-Sham states (occupied + empty):      244
------------------------------------------------------------
  After read_input_data [GB]:   1039.94

  Performing system and environment tests:
  *** Environment variable OMP_NUM_THREADS is not set
  *** For performance reasons you might want to set it to 1
  | Checking for ScaLAPACK...
  | Testing pdtran()...
  | All pdtran() tests passed.
  After prepare_system [GB]:   1039.52

------------------------------------------------------------
          Preparing all fixed parts of the calculation.
------------------------------------------------------------
  Determining machine precision:
    2.225073858507201E-308
  Setting up grids for atomic and cluster calculations.

  Creating wave function, potential, and density for free atoms.
  Runtime choices for atomic solver:
  | atomic solver xc        : PBE
  | compute density gradient: 1
  | compute kinetic density : F

  Species: Ti

  List of occupied orbitals and eigenvalues:
    n    l              occ      energy [Ha]    energy [eV]
    1    0           2.0000      -179.959082     -4896.9358
    2    0           2.0000       -19.727662      -536.8170
    3    0           2.0000        -2.283029       -62.1244
    4    0           2.0000        -0.148384        -4.0377
    2    1           6.0000       -16.317278      -444.0157
    3    1           6.0000        -1.409348       -38.3503
    3    2           2.0000        -0.139340        -3.7916


  Species: O

  List of occupied orbitals and eigenvalues:
    n    l              occ      energy [Ha]    energy [eV]
    1    0           2.0000       -18.926989      -515.0296
    2    0           2.0000        -0.880247       -23.9527
    2    1           4.0000        -0.331514        -9.0210


  Species: F

  List of occupied orbitals and eigenvalues:
    n    l              occ      energy [Ha]    energy [eV]
    1    0           2.0000       -24.399611      -663.9472
    2    0           2.0000        -1.098702       -29.8972
    2    1           5.0000        -0.408210       -11.1080

  Spin-polarized or charged system:
  Charge density initialized according to selected moments and charges.

  Creating spin-polarized density from free atoms.

  Species: O
  Charge:   0.000000
  Moment:   0.000000

  List of occupied orbitals and eigenvalues:
    n    l      energy [Ha]    energy [eV]    occupation
  Spin-up
    1    0       -18.926989      -515.0296     1.00000000
    2    0        -0.880247       -23.9527     1.00000000
    2    1        -0.331514        -9.0210     2.00000000
  Spin-down
    1    0       -18.926989      -515.0296     1.00000000
    2    0        -0.880247       -23.9527     1.00000000
    2    1        -0.331514        -9.0210     2.00000000


  Species: Ti
  Charge:   0.000000
  Moment:   0.000000

  List of occupied orbitals and eigenvalues:
    n    l      energy [Ha]    energy [eV]    occupation
  Spin-up
    1    0      -179.959082     -4896.9358     1.00000000
    2    0       -19.727662      -536.8170     1.00000000
    3    0        -2.283029       -62.1244     1.00000000
    4    0        -0.148384        -4.0377     1.00000000
    2    1       -16.317278      -444.0157     3.00000000
    3    1        -1.409348       -38.3503     3.00000000
    3    2        -0.139340        -3.7916     1.00000000
  Spin-down
    1    0      -179.959082     -4896.9358     1.00000000
    2    0       -19.727662      -536.8170     1.00000000
    3    0        -2.283029       -62.1244     1.00000000
    4    0        -0.148384        -4.0377     1.00000000
    2    1       -16.317278      -444.0157     3.00000000
    3    1        -1.409348       -38.3503     3.00000000
    3    2        -0.139340        -3.7916     1.00000000


  Species: F
  Charge:   0.000000
  Moment:   0.000000

  List of occupied orbitals and eigenvalues:
    n    l      energy [Ha]    energy [eV]    occupation
  Spin-up
    1    0       -24.399611      -663.9472     1.00000000
    2    0        -1.098702       -29.8972     1.00000000
    2    1        -0.408210       -11.1080     2.50000000
  Spin-down
    1    0       -24.399611      -663.9472     1.00000000
    2    0        -1.098702       -29.8972     1.00000000
    2    1        -0.408210       -11.1080     2.50000000


  Adding cutoff potential to free-atom effective potential.
  Creating fixed part of basis set: Ionic, confined, hydrogenic.
 
  Ti                   ion:

  List of free ionic orbitals and eigenvalues:
    n    l      energy [Ha]    energy [eV]
    1    0      -180.819616     -4920.3521
    2    0       -20.608761      -560.7929
    3    0        -3.115729       -84.7833
    4    0        -0.697188       -18.9715
    2    1       -17.196209      -467.9327
    3    1        -2.231296       -60.7167
    3    2        -0.911363       -24.7995


  List of ionic basis orbitals and eigenvalues:
    n    l      energy [Ha]    energy [eV]    outer radius [A]
    4    1        -0.517739       -14.0884       4.592117
    4    0        -0.696824       -18.9615       4.536321

 
  Ti                   hydrogenic:
 
  List of hydrogenic basis orbitals: 
    n    l      effective z      eigenvalue [eV]  inner max. [A]     outer max. [A]     outer radius [A]   
    4    3         8.000000       -54.4222           1.059019           1.059019           4.267343
    3    2         2.700000       -10.7798           1.726925           1.726925           4.592117
 
 
  O                    hydrogenic:
 
  List of hydrogenic basis orbitals: 
    n    l      effective z      eigenvalue [eV]  inner max. [A]     outer max. [A]     outer radius [A]   
    2    1         1.800000       -10.9749           1.164242           1.164242           4.578029
    3    2         7.600000       -87.3180           0.624125           0.624125           3.251020
    3    0         6.400000       -61.9207           0.061167           1.081902           4.001998
 
 
  F                    hydrogenic:
 
  List of hydrogenic basis orbitals: 
    n    l      effective z      eigenvalue [eV]  inner max. [A]     outer max. [A]     outer radius [A]   
    2    1         1.700000        -9.7616           1.243167           1.243167           4.598524
    3    2         7.400000       -82.7828           0.642437           0.642437           3.305741
    3    0         6.800000       -69.9026           0.057798           1.022307           3.781556
 
  Creating atomic-like basis functions for current effective potential.

  Species Ti                  :

  List of atomic basis orbitals and eigenvalues:
    n    l      energy [Ha]    energy [eV]    outer radius [A]
    1    0      -179.959082     -4896.9358       0.490254
    2    0       -19.727662      -536.8170       1.491292
    3    0        -2.283029       -62.1244       4.014314
    4    0        -0.148384        -4.0377       4.592117
    2    1       -16.317278      -444.0157       1.585290
    3    1        -1.409348       -38.3503       4.267343
    3    2        -0.139340        -3.7916       4.536321


  Species O                   :

  List of atomic basis orbitals and eigenvalues:
    n    l      energy [Ha]    energy [eV]    outer radius [A]
    1    0       -18.926989      -515.0296       1.415765
    2    0        -0.880247       -23.9527       4.413171
    2    1        -0.331514        -9.0210       4.522403


  Species F                   :

  List of atomic basis orbitals and eigenvalues:
    n    l      energy [Ha]    energy [eV]    outer radius [A]
    1    0       -24.399611      -663.9472       1.258458
    2    0        -1.098702       -29.8972       4.325857
    2    1        -0.408210       -11.1080       4.487453

  Assembling full basis from fixed parts.
  | Species Ti :   atomic orbital   1 s accepted.
  | Species Ti :   atomic orbital   2 s accepted.
  | Species Ti :   atomic orbital   3 s accepted.
  | Species Ti :    ionic orbital   4 s accepted.
  | Species Ti :   atomic orbital   4 s accepted.
  | Species Ti :   atomic orbital   2 p accepted.
  | Species Ti :   atomic orbital   3 p accepted.
  | Species Ti :    ionic orbital   4 p accepted.
  | Species Ti :   atomic orbital   3 d accepted.
  | Species Ti :    hydro orbital   3 d accepted.
  | Species Ti :    hydro orbital   4 f accepted.
  | Species O :   atomic orbital   1 s accepted.
  | Species O :    hydro orbital   3 s accepted.
  | Species O :   atomic orbital   2 s accepted.
  | Species O :   atomic orbital   2 p accepted.
  | Species O :    hydro orbital   2 p accepted.
  | Species O :    hydro orbital   3 d accepted.
  | Species F :   atomic orbital   1 s accepted.
  | Species F :    hydro orbital   3 s accepted.
  | Species F :   atomic orbital   2 s accepted.
  | Species F :   atomic orbital   2 p accepted.
  | Species F :    hydro orbital   2 p accepted.
  | Species F :    hydro orbital   3 d accepted.
 
  Basis size parameters after reduction:
  | Total number of radial functions:       23
  | Total number of basis functions :      472
 
  Per-task memory consumption for arrays in subroutine allocate_ext:
  |           6.120712MB.
  Testing on-site integration grid accuracy.
  |  Species  Function  <phi|h_atom|phi> (log., in eV)  <phi|h_atom|phi> (rad., in eV)
           1        1              -4896.9357674450              -4896.9322838106
           1        2               -536.8170048508               -536.8169722776
           1        3                -62.1243896260                -62.1243889401
           1        4                 -3.2653235630                 -3.2692838824
           1        5                  6.7987747276                  6.5460721871 ***
           1        6               -444.0157161949               -444.0157165643
           1        7                -38.3503235548                -38.3503234985
           1        8                  0.2923930877                  0.2745948114
           1        9                 -3.7933400649                 -3.7959244171
           1       10                  6.3288803616                  6.2510614935 ***
           1       11                 27.8451455747                 27.8452636415
           2       12               -515.0295626295               -515.0294562869
           2       13                 15.1698434419                 15.1699322205
           2       14                -21.6038822678                -21.6039118108
           2       15                 -9.0211123393                 -9.0212703513
           2       16                  8.3047696391                  8.2854840999
           2       17                 45.8428042125                 45.8427461223
           3       18               -663.9471986398               -663.9470363156
           3       19                 16.8514011578                 16.8512525340
           3       20                -28.4490593856                -28.4490661455
           3       21                -11.1080115307                -11.1080620174
           3       22                  7.1940182175                  7.1685154136
           3       23                 44.8544281765                 44.8543763625
 * Note: Onsite integrals marked "***" above are less accurate than
 * onsite_accuracy_threshold =    0.03000 eV. Usually, this is harmless.
 * When in doubt, tighten the "radial" and/or "radial_multiplier" flags to check.

  Preparing densities etc. for the partition functions (integrals / Hartree potential).

  Preparations completed.
  max(cpu_time)          :      0.512 s.
  Wall clock time (cpu1) :      0.511 s.
------------------------------------------------------------
  After prepare_scf [GB]:   1035.53

  Initializing index lists of integration centers etc. from given atomic structure:
  Mapping all atomic coordinates to central unit cell.

  Initializing the k-points
  Using symmetry for reducing the k-points
  | k-points reduced from:       64 to       34
  | Number of k-points                             :        34
  The eigenvectors in the calculations are COMPLEX.
  | K-points in task   0:         1
  | K-points in task   1:         2
  | K-points in task   2:         2
  | K-points in task   3:         1
  | K-points in task   4:         1
  | K-points in task   5:         1
  | K-points in task   6:         1
  | K-points in task   7:         1
  | K-points in task   8:         1
  | K-points in task   9:         1
  | K-points in task  10:         1
  | K-points in task  11:         1
  | K-points in task  12:         1
  | K-points in task  13:         1
  | K-points in task  14:         1
  | K-points in task  15:         1
  | K-points in task  16:         1
  | K-points in task  17:         1
  | K-points in task  18:         1
  | K-points in task  19:         1
  | K-points in task  20:         1
  | K-points in task  21:         1
  | K-points in task  22:         1
  | K-points in task  23:         1
  | K-points in task  24:         1
  | K-points in task  25:         1
  | K-points in task  26:         1
  | K-points in task  27:         1
  | K-points in task  28:         1
  | K-points in task  29:         1
  | K-points in task  30:         1
  | K-points in task  31:         1
  | Number of basis functions in the Hamiltonian integrals :      4888
  | Number of basis functions in a single unit cell        :       472
  | Number of centers in hartree potential         :      1430
  | Number of centers in hartree multipole         :       689
  | Number of centers in electron density summation:       553
  | Number of centers in basis integrals           :       576
  | Number of centers in integrals                 :       309
  | Number of centers in hamiltonian               :       558
  | Consuming         32 KiB for k_phase.
  | Number of super-cells (origin) [n_cells]                     :         405
  | Number of super-cells (after PM_index) [n_cells]             :          62
  | Number of super-cells in hamiltonian [n_cells_in_hamiltonian]:          62
  | Size of matrix packed + index [n_hamiltonian_matrix_size] :      558327
  After initialize_bc_dependent_lists [GB]:   1035.46

------------------------------------------------------------
          Begin self-consistency loop: Initialization.

          Date     :  20250324, Time     :  155932.572
------------------------------------------------------------
  Available memory per node after initialize_hartree_non_periodic_ewald [GB]:   1035.45
  | Estimated reciprocal-space cutoff momentum G_max:         1.91888898 bohr^-1 .
  | Reciprocal lattice points for long-range Hartree potential:     692
  Available memory per node after initialize_recip_hartree_potential [GB]:   1035.45
  Available memory per node after initialize_scalapack [GB]:   1035.45
  Available memory per node after aims_elsi_init_scf [GB]:   1035.45
  Available memory per node after initialize_fixed_grids [GB]:   1035.45
  Partitioning the integration grid into batches with parallel hashing+maxmin method.
  | Number of batches:     1796
  | Maximal batch size:     159
  | Minimal batch size:      57
  | Average batch size:      86.059
  | Standard deviation of batch sizes:      28.732

  Integration load balanced across    32 MPI tasks.
  Work distribution over tasks is as follows:
  Task     0 has       4859 integration points.
  Task     1 has       4858 integration points.
  Task     2 has       4855 integration points.
  Task     3 has       4844 integration points.
  Task     4 has       4821 integration points.
  Task     5 has       4800 integration points.
  Task     6 has       4848 integration points.
  Task     7 has       4800 integration points.
  Task     8 has       4838 integration points.
  Task     9 has       4799 integration points.
  Task    10 has       4835 integration points.
  Task    11 has       4834 integration points.
  Task    12 has       4830 integration points.
  Task    13 has       4836 integration points.
  Task    14 has       4836 integration points.
  Task    15 has       4802 integration points.
  Task    16 has       4826 integration points.
  Task    17 has       4807 integration points.
  Task    18 has       4847 integration points.
  Task    19 has       4840 integration points.
  Task    20 has       4841 integration points.
  Task    21 has       4815 integration points.
  Task    22 has       4860 integration points.
  Task    23 has       4822 integration points.
  Task    24 has       4855 integration points.
  Task    25 has       4839 integration points.
  Task    26 has       4831 integration points.
  Task    27 has       4843 integration points.
  Task    28 has       4803 integration points.
  Task    29 has       4819 integration points.
  Task    30 has       4802 integration points.
  Task    31 has       4817 integration points.
  Available memory per node after partition_grid [GB]:   1030.72
  Initializing partition tables, free-atom densities, potentials, etc. across the integration grid (initialize_grid_storage).
  | initialize_grid_storage: Actual outermost partition radius vs. multipole_radius_free
  | (-- VB: in principle, multipole_radius_free should be larger, hence this output)
  | Species        1: Confinement radius =              4.999999999999999 AA, multipole_radius_free =              5.002391649902235 AA.
  | Species        1: outer_partition_radius set to              5.002391649902235 AA .
  | Species        2: Confinement radius =              4.999999999999999 AA, multipole_radius_free =              5.048384829883283 AA.
  | Species        2: outer_partition_radius set to              5.048384829883283 AA .
  | Species        3: Confinement radius =              4.999999999999999 AA, multipole_radius_free =              5.009370088163274 AA.
  | Species        3: outer_partition_radius set to              5.009370088163274 AA .
  | The sparse table of interatomic distances needs        846.03 kbyte instead of      2654.21 kbyte of memory.
  | Net number of integration points:   154562
  | of which are non-zero points    :   130009
  | Numerical average free-atom electrostatic potential    :     -5.19545995 eV
  Available memory per node after initialize_grid_storage_p1 [GB]:   1023.38
  Renormalizing the initial density to the exact electron count on the 3D integration grid.
  | Initial density: Formal number of electrons (from input files) :     305.0000000000
  | Integrated number of electrons on 3D grid     :     304.9991080871
  | Charge integration error                      :      -0.0008919129
  | Normalization factor for density and gradient :       1.0000029243
  Renormalizing the free-atom superposition density to the exact electron count on the 3D integration grid.
  | Formal number of electrons (from input files) :     304.0000000000
  | Integrated number of electrons on 3D grid     :     304.9991080871
  | Charge integration error                      :      -0.0008919129
  | Normalization factor for density and gradient :       1.0000029243
  Obtaining max. number of non-zero basis functions in each batch (get_n_compute_maxes).
  | Maximal number of non-zero basis functions:      710 in task     0
  | Maximal number of non-zero basis functions:      724 in task     1
  | Maximal number of non-zero basis functions:      703 in task     2
  | Maximal number of non-zero basis functions:      710 in task     3
  | Maximal number of non-zero basis functions:      695 in task     4
  | Maximal number of non-zero basis functions:      668 in task     5
  | Maximal number of non-zero basis functions:      717 in task     6
  | Maximal number of non-zero basis functions:      711 in task     7
  | Maximal number of non-zero basis functions:      675 in task     8
  | Maximal number of non-zero basis functions:      709 in task     9
  | Maximal number of non-zero basis functions:      717 in task    10
  | Maximal number of non-zero basis functions:      708 in task    11
  | Maximal number of non-zero basis functions:      723 in task    12
  | Maximal number of non-zero basis functions:      684 in task    13
  | Maximal number of non-zero basis functions:      702 in task    14
  | Maximal number of non-zero basis functions:      684 in task    15
  | Maximal number of non-zero basis functions:      700 in task    16
  | Maximal number of non-zero basis functions:      692 in task    17
  | Maximal number of non-zero basis functions:      718 in task    18
  | Maximal number of non-zero basis functions:      702 in task    19
  | Maximal number of non-zero basis functions:      707 in task    20
  | Maximal number of non-zero basis functions:      707 in task    21
  | Maximal number of non-zero basis functions:      683 in task    22
  | Maximal number of non-zero basis functions:      694 in task    23
  | Maximal number of non-zero basis functions:      702 in task    24
  | Maximal number of non-zero basis functions:      712 in task    25
  | Maximal number of non-zero basis functions:      684 in task    26
  | Maximal number of non-zero basis functions:      687 in task    27
  | Maximal number of non-zero basis functions:      694 in task    28
  | Maximal number of non-zero basis functions:      693 in task    29
  | Maximal number of non-zero basis functions:      683 in task    30
  | Maximal number of non-zero basis functions:      707 in task    31
  Available memory per node after get_n_compute_maxes_p1 [GB]:   1021.85
  Initialize hartree_potential_storage
  Max. number of atoms included in rho_multipole:           24

  Evaluating partitioned Hartree potential by multipole expansion.
  | Original multipole sum: apparent total charge =   0.666987E-13
  | Sum of charges compensated after spline to logarithmic grids =   0.000000E+00
  | Analytical far-field extrapolation by fixed multipoles:
  | Hartree multipole sum: apparent total charge =   0.000000E+00
  Summing up the Hartree potential.
  | Ewald reciprocal-space coefficients, myid =     0 : cpu      0.000 s, wall      0.000 s.
  | Ewald reciprocal-space coefficients, myid =     1 : cpu      0.000 s, wall      0.000 s.
  | Ewald reciprocal-space coefficients, myid =     2 : cpu      0.000 s, wall      0.000 s.
  | Ewald reciprocal-space coefficients, myid =     3 : cpu      0.000 s, wall      0.000 s.
  | Ewald reciprocal-space coefficients, myid =     4 : cpu      0.000 s, wall      0.000 s.
  | Ewald reciprocal-space coefficients, myid =     5 : cpu      0.000 s, wall      0.000 s.
  | Ewald reciprocal-space coefficients, myid =     6 : cpu      0.000 s, wall      0.000 s.
  | Ewald reciprocal-space coefficients, myid =     7 : cpu      0.000 s, wall      0.000 s.
  | Ewald reciprocal-space coefficients, myid =     8 : cpu      0.000 s, wall      0.000 s.
  | Ewald reciprocal-space coefficients, myid =     9 : cpu      0.000 s, wall      0.000 s.
  | Ewald reciprocal-space coefficients, myid =    10 : cpu      0.000 s, wall      0.000 s.
  | Ewald reciprocal-space coefficients, myid =    11 : cpu      0.000 s, wall      0.000 s.
  | Ewald reciprocal-space coefficients, myid =    12 : cpu      0.000 s, wall      0.000 s.
  | Ewald reciprocal-space coefficients, myid =    13 : cpu      0.000 s, wall      0.000 s.
  | Ewald reciprocal-space coefficients, myid =    14 : cpu      0.000 s, wall      0.000 s.
  | Ewald reciprocal-space coefficients, myid =    15 : cpu      0.000 s, wall      0.000 s.
  | Ewald reciprocal-space coefficients, myid =    16 : cpu      0.000 s, wall      0.000 s.
  | Ewald reciprocal-space coefficients, myid =    17 : cpu      0.000 s, wall      0.000 s.
  | Ewald reciprocal-space coefficients, myid =    18 : cpu      0.000 s, wall      0.000 s.
  | Ewald reciprocal-space coefficients, myid =    19 : cpu      0.000 s, wall      0.000 s.
  | Ewald reciprocal-space coefficients, myid =    20 : cpu      0.000 s, wall      0.000 s.
  | Ewald reciprocal-space coefficients, myid =    21 : cpu      0.000 s, wall      0.000 s.
  | Ewald reciprocal-space coefficients, myid =    22 : cpu      0.000 s, wall      0.000 s.
  | Ewald reciprocal-space coefficients, myid =    23 : cpu      0.000 s, wall      0.000 s.
  | Ewald reciprocal-space coefficients, myid =    24 : cpu      0.000 s, wall      0.000 s.
  | Ewald reciprocal-space coefficients, myid =    25 : cpu      0.000 s, wall      0.000 s.
  | Ewald reciprocal-space coefficients, myid =    26 : cpu      0.000 s, wall      0.000 s.
  | Ewald reciprocal-space coefficients, myid =    27 : cpu      0.000 s, wall      0.000 s.
  | Ewald reciprocal-space coefficients, myid =    28 : cpu      0.000 s, wall      0.000 s.
  | Ewald reciprocal-space coefficients, myid =    29 : cpu      0.000 s, wall      0.000 s.
  | Ewald reciprocal-space coefficients, myid =    30 : cpu      0.000 s, wall      0.000 s.
  | Ewald reciprocal-space coefficients, myid =    31 : cpu      0.000 s, wall      0.000 s.
  Time summed over all CPUs for potential: real work        0.050 s, elapsed        0.071 s
  | RMS charge density error from multipole expansion :   0.357185E-13
  | Average real-space part of the electrostatic potential :     -0.00000000 eV

  Allocating        3.515 MB for KS_eigenvector_complex
  Available memory per node after allocate_matrices [GB]:   1020.62
  Available memory per node after init_comm_sparse_local_matrix_scalapack [GB]:   1020.37
  Integrating Hamiltonian matrix: batch-based integration.
  Time summed over all CPUs for integration: real work       28.970 s, elapsed       45.410 s => Consider using load balancing!
  Available memory per node after integrate hamiltonian matrix [GB]:    959.92
  Integrating overlap matrix.
  Time summed over all CPUs for integration: real work        4.819 s, elapsed        8.099 s
  Available memory per node after integrate ovlp matrix [GB]:    958.73
  Available memory per node after ASI_callbacks invoke [GB]:    958.73
  Available memory per node after save_overlap_scalapack [GB]:    958.73

  Updating Kohn-Sham eigenvalues and eigenvectors using ELSI and the (modified) LAPACK eigensolver.
  Singularity check in k-point 32, task 0 (analysis for other k-points/tasks may follow below):
  Overlap matrix is not singular
  | Lowest and highest eigenvalues :  0.1376E-02,  0.7685E+01
  Finished singularity check of overlap matrix
  | Time :     0.099 s
  Starting LAPACK eigensolver
  Finished Cholesky decomposition
  | Time :     0.018 s
  Finished transformation to standard eigenproblem
  | Time :     0.021 s
  Finished solving standard eigenproblem
  | Time :     0.121 s
  Finished back-transformation of eigenvectors
  | Time :     0.010 s

  Obtaining occupation numbers and electronic chemical potential using ELSI.
  | Note that, for insulating systems, the printed 'chemical potential' value is not uniquely defined.
  | It can be anywhere in the energy gap, as long as it correctly separates occupied and unoccupied states.
  | In systems with a gap, the physically relevant chemical potential is the VBM or HOMO.

  | Chemical potential (Fermi level):    -5.48982376 eV
  Available memory per node after advance_KS_solution [GB]:    958.44
  Writing Kohn-Sham eigenvalues.

  Spin-up eigenvalues:
  K-point:       1 at    0.000000    0.000000    0.000000 (in units of recip. lattice)

  State    Occupation    Eigenvalue [Ha]    Eigenvalue [eV]
      1       1.00000        -179.962363        -4897.02507
      2       1.00000        -179.962363        -4897.02506
      3       1.00000        -179.962363        -4897.02505
      4       1.00000        -179.961819        -4897.01024
      5       1.00000        -179.961228        -4896.99416
      6       1.00000        -179.961228        -4896.99416
      7       1.00000        -179.960577        -4896.97644
      8       1.00000        -179.960577        -4896.97644
      9       1.00000         -24.506552         -666.85721
     10       1.00000         -19.737905         -537.09573
     11       1.00000         -19.737905         -537.09572
     12       1.00000         -19.737905         -537.09571
     13       1.00000         -19.737323         -537.07990
     14       1.00000         -19.736670         -537.06211
     15       1.00000         -19.736670         -537.06211
     16       1.00000         -19.735975         -537.04320
     17       1.00000         -19.735975         -537.04320
     18       1.00000         -19.034625         -517.95851
     19       1.00000         -19.034625         -517.95851
     20       1.00000         -19.034625         -517.95851
     21       1.00000         -19.034625         -517.95851
     22       1.00000         -19.034527         -517.95582
     23       1.00000         -19.034527         -517.95582
     24       1.00000         -19.034527         -517.95582
     25       1.00000         -19.034526         -517.95581
     26       1.00000         -19.034525         -517.95578
     27       1.00000         -19.034505         -517.95524
     28       1.00000         -19.034460         -517.95402
     29       1.00000         -19.001837         -517.06629
     30       1.00000         -19.001837         -517.06629
     31       1.00000         -19.001814         -517.06567
     32       1.00000         -19.001814         -517.06567
     33       1.00000         -16.328081         -444.30969
     34       1.00000         -16.328081         -444.30968
     35       1.00000         -16.328080         -444.30967
     36       1.00000         -16.327761         -444.30097
     37       1.00000         -16.327760         -444.30096
     38       1.00000         -16.327760         -444.30095
     39       1.00000         -16.327754         -444.30080
     40       1.00000         -16.327754         -444.30078
     41       1.00000         -16.327754         -444.30078
     42       1.00000         -16.327524         -444.29454
     43       1.00000         -16.327197         -444.28565
     44       1.00000         -16.327150         -444.28436
     45       1.00000         -16.326910         -444.27782
     46       1.00000         -16.326910         -444.27782
     47       1.00000         -16.326601         -444.26941
     48       1.00000         -16.326601         -444.26941
     49       1.00000         -16.326436         -444.26492
     50       1.00000         -16.326436         -444.26492
     51       1.00000         -16.326211         -444.25881
     52       1.00000         -16.326211         -444.25881
     53       1.00000         -16.325905         -444.25048
     54       1.00000         -16.325905         -444.25048
     55       1.00000         -16.325771         -444.24683
     56       1.00000         -16.325771         -444.24683
     57       1.00000          -2.309003          -62.83118
     58       1.00000          -2.308616          -62.82062
     59       1.00000          -2.307214          -62.78248
     60       1.00000          -2.306541          -62.76418
     61       1.00000          -2.306168          -62.75403
     62       1.00000          -2.304914          -62.71989
     63       1.00000          -2.304410          -62.70617
     64       1.00000          -2.303143          -62.67172
     65       1.00000          -1.463750          -39.83066
     66       1.00000          -1.463367          -39.82025
     67       1.00000          -1.462648          -39.80069
     68       1.00000          -1.462072          -39.78501
     69       1.00000          -1.449524          -39.44355
     70       1.00000          -1.448661          -39.42008
     71       1.00000          -1.446247          -39.35440
     72       1.00000          -1.445836          -39.34319
     73       1.00000          -1.441283          -39.21930
     74       1.00000          -1.441113          -39.21468
     75       1.00000          -1.441094          -39.21417
     76       1.00000          -1.440652          -39.20215
     77       1.00000          -1.439115          -39.16030
     78       1.00000          -1.439031          -39.15804
     79       1.00000          -1.438757          -39.15057
     80       1.00000          -1.438698          -39.14898
     81       1.00000          -1.437838          -39.12556
     82       1.00000          -1.437673          -39.12108
     83       1.00000          -1.437233          -39.10910
     84       1.00000          -1.435824          -39.07077
     85       1.00000          -1.432994          -38.99374
     86       1.00000          -1.432087          -38.96908
     87       1.00000          -1.431830          -38.96207
     88       1.00000          -1.430895          -38.93664
     89       1.00000          -1.230040          -33.47109
     90       1.00000          -1.055433          -28.71981
     91       1.00000          -1.043702          -28.40057
     92       1.00000          -1.033759          -28.13002
     93       1.00000          -1.027717          -27.96561
     94       1.00000          -1.026239          -27.92538
     95       1.00000          -1.024948          -27.89026
     96       1.00000          -1.022587          -27.82600
     97       1.00000          -1.020618          -27.77242
     98       1.00000          -1.015179          -27.62442
     99       1.00000          -1.009448          -27.46847
    100       1.00000          -1.005815          -27.36962
    101       1.00000          -0.982264          -26.72877
    102       1.00000          -0.981317          -26.70298
    103       1.00000          -0.979326          -26.64881
    104       1.00000          -0.979063          -26.64166
    105       1.00000          -0.599278          -16.30718
    106       1.00000          -0.575008          -15.64675
    107       1.00000          -0.573655          -15.60995
    108       1.00000          -0.554462          -15.08769
    109       1.00000          -0.549795          -14.96069
    110       1.00000          -0.543508          -14.78961
    111       1.00000          -0.541322          -14.73013
    112       1.00000          -0.537749          -14.63289
    113       1.00000          -0.536771          -14.60628
    114       1.00000          -0.533412          -14.51488
    115       1.00000          -0.532728          -14.49627
    116       1.00000          -0.524508          -14.27260
    117       1.00000          -0.518801          -14.11728
    118       1.00000          -0.514872          -14.01038
    119       1.00000          -0.514727          -14.00644
    120       1.00000          -0.514225          -13.99279
    121       1.00000          -0.508954          -13.84934
    122       1.00000          -0.504424          -13.72607
    123       1.00000          -0.503067          -13.68916
    124       1.00000          -0.502075          -13.66215
    125       1.00000          -0.502051          -13.66150
    126       1.00000          -0.489182          -13.31132
    127       1.00000          -0.488787          -13.30057
    128       1.00000          -0.483594          -13.15925
    129       1.00000          -0.481155          -13.09290
    130       1.00000          -0.476702          -12.97173
    131       1.00000          -0.472104          -12.84660
    132       1.00000          -0.471300          -12.82472
    133       1.00000          -0.466288          -12.68833
    134       1.00000          -0.464905          -12.65071
    135       1.00000          -0.462096          -12.57428
    136       1.00000          -0.458502          -12.47647
    137       1.00000          -0.454595          -12.37016
    138       1.00000          -0.451774          -12.29338
    139       1.00000          -0.450698          -12.26412
    140       1.00000          -0.448379          -12.20101
    141       1.00000          -0.441098          -12.00290
    142       1.00000          -0.437254          -11.89830
    143       1.00000          -0.437175          -11.89614
    144       1.00000          -0.437053          -11.89283
    145       1.00000          -0.434822          -11.83211
    146       1.00000          -0.433730          -11.80240
    147       1.00000          -0.432609          -11.77189
    148       1.00000          -0.429555          -11.68880
    149       1.00000          -0.419464          -11.41421
    150       1.00000          -0.416680          -11.33843
    151       1.00000          -0.416242          -11.32651
    152       1.00000          -0.411844          -11.20686
    153       0.00000          -0.187884           -5.11257
    154       0.00000          -0.186536           -5.07591
    155       0.00000          -0.177420           -4.82785
    156       0.00000          -0.174870           -4.75844
    157       0.00000          -0.171783           -4.67447
    158       0.00000          -0.167786           -4.56570
    159       0.00000          -0.162788           -4.42969
    160       0.00000          -0.159981           -4.35331
    161       0.00000          -0.156922           -4.27008
    162       0.00000          -0.155678           -4.23622
    163       0.00000          -0.155447           -4.22993
    164       0.00000          -0.154266           -4.19780
    165       0.00000          -0.151344           -4.11829
    166       0.00000          -0.145415           -3.95695
    167       0.00000          -0.144098           -3.92109
    168       0.00000          -0.143492           -3.90461
    169       0.00000          -0.141395           -3.84755
    170       0.00000          -0.137994           -3.75500
    171       0.00000          -0.136719           -3.72030
    172       0.00000          -0.136696           -3.71968
    173       0.00000          -0.132977           -3.61848
    174       0.00000          -0.132870           -3.61557
    175       0.00000          -0.129945           -3.53599
    176       0.00000          -0.125546           -3.41628
    177       0.00000          -0.123441           -3.35900
    178       0.00000          -0.110438           -3.00517
    179       0.00000          -0.105196           -2.86252
    180       0.00000          -0.105089           -2.85962
    181       0.00000          -0.088140           -2.39840
    182       0.00000          -0.071120           -1.93529
    183       0.00000          -0.064217           -1.74742
    184       0.00000          -0.059759           -1.62613
    185       0.00000          -0.056471           -1.53667
    186       0.00000          -0.049364           -1.34326
    187       0.00000          -0.048175           -1.31091
    188       0.00000          -0.045304           -1.23279
    189       0.00000          -0.044606           -1.21378
    190       0.00000          -0.042737           -1.16294
    191       0.00000          -0.042356           -1.15257
    192       0.00000          -0.039715           -1.08070
    193       0.00000          -0.031855           -0.86681
    194       0.00000          -0.029316           -0.79773
    195       0.00000           0.029427            0.80076
    196       0.00000           0.061936            1.68537
    197       0.00000           0.072620            1.97610
    198       0.00000           0.081277            2.21166
    199       0.00000           0.082374            2.24150
    200       0.00000           0.099058            2.69550
    201       0.00000           0.102634            2.79281
    202       0.00000           0.103214            2.80860
    203       0.00000           0.107141            2.91546
    204       0.00000           0.112681            3.06622
    205       0.00000           0.130807            3.55945
    206       0.00000           0.164474            4.47557
    207       0.00000           0.170923            4.65105
    208       0.00000           0.183737            4.99974
    209       0.00000           0.187082            5.09076
    210       0.00000           0.190684            5.18877
    211       0.00000           0.196865            5.35698
    212       0.00000           0.217098            5.90753
    213       0.00000           0.232561            6.32830
    214       0.00000           0.235746            6.41498
    215       0.00000           0.241831            6.58056
    216       0.00000           0.248549            6.76336
    217       0.00000           0.256024            6.96678
    218       0.00000           0.259081            7.04996
    219       0.00000           0.264363            7.19368
    220       0.00000           0.270091            7.34956
    221       0.00000           0.299082            8.13844
    222       0.00000           0.302827            8.24035
    223       0.00000           0.313334            8.52624
    224       0.00000           0.316362            8.60865
    225       0.00000           0.326944            8.89660
    226       0.00000           0.331511            9.02088
    227       0.00000           0.345291            9.39586
    228       0.00000           0.358679            9.76016
[...]
    171       0.00000          -0.274602           -7.47229
    172       0.00000          -0.272493           -7.41492
    173       0.00000          -0.264974           -7.21031
    174       0.00000          -0.262658           -7.14728
    175       0.00000          -0.258142           -7.02439
    176       0.00000          -0.256225           -6.97223
    177       0.00000          -0.250835           -6.82558
    178       0.00000          -0.250223           -6.80893
    179       0.00000          -0.242312           -6.59365
    180       0.00000          -0.241276           -6.56545
    181       0.00000          -0.231239           -6.29233
    182       0.00000          -0.213372           -5.80614
    183       0.00000          -0.211226           -5.74776
    184       0.00000          -0.192678           -5.24303
    185       0.00000          -0.190731           -5.19006
    186       0.00000          -0.173300           -4.71572
    187       0.00000          -0.171345           -4.66255
    188       0.00000          -0.166446           -4.52923
    189       0.00000          -0.158240           -4.30593
    190       0.00000          -0.147854           -4.02331
    191       0.00000          -0.144511           -3.93233
    192       0.00000          -0.143816           -3.91342
    193       0.00000          -0.133658           -3.63703
    194       0.00000          -0.115463           -3.14190
    195       0.00000          -0.049123           -1.33671
    196       0.00000          -0.040353           -1.09807
    197       0.00000          -0.013696           -0.37270
    198       0.00000          -0.008249           -0.22446
    199       0.00000           0.020296            0.55229
    200       0.00000           0.029827            0.81162
    201       0.00000           0.040456            1.10087
    202       0.00000           0.044571            1.21283
    203       0.00000           0.049288            1.34118
    204       0.00000           0.059180            1.61038
    205       0.00000           0.069417            1.88894
    206       0.00000           0.093300            2.53881
    207       0.00000           0.106860            2.90781
    208       0.00000           0.119123            3.24149
    209       0.00000           0.119937            3.26364
    210       0.00000           0.128094            3.48561
    211       0.00000           0.133642            3.63658
    212       0.00000           0.161374            4.39122
    213       0.00000           0.162826            4.43072
    214       0.00000           0.170107            4.62883
    215       0.00000           0.180273            4.90548
    216       0.00000           0.180569            4.91352
    217       0.00000           0.183816            5.00189
    218       0.00000           0.188851            5.13891
    219       0.00000           0.199786            5.43646
    220       0.00000           0.220449            5.99873
    221       0.00000           0.228852            6.22739
    222       0.00000           0.232107            6.31596
    223       0.00000           0.238490            6.48963
    224       0.00000           0.247143            6.72511
    225       0.00000           0.249077            6.77773
    226       0.00000           0.256943            6.99177
    227       0.00000           0.278250            7.57158
    228       0.00000           0.289700            7.88314
    229       0.00000           0.293339            7.98216
    230       0.00000           0.306353            8.33628
    231       0.00000           0.312109            8.49291
    232       0.00000           0.314702            8.56346
    233       0.00000           0.320047            8.70892
    234       0.00000           0.323161            8.79367
    235       0.00000           0.327806            8.92006
    236       0.00000           0.339947            9.25044
    237       0.00000           0.345196            9.39327
    238       0.00000           0.360159            9.80043
    239       0.00000           0.391116           10.64282
    240       0.00000           0.394295           10.72932
    241       0.00000           0.401519           10.92590
    242       0.00000           0.411475           11.19680
    243       0.00000           0.414353           11.27512
    244       0.00000           0.420392           11.43945

  Current spin moment of the entire structure :
  | N = N_up - N_down (sum over all k points):         0.00000
  | S (sum over all k points)                :         0.00000

  What follows are estimated values for band gap, HOMO, LUMO, etc.
  | They are estimated on a discrete k-point grid and not necessarily exact.
  | For converged numbers, create a DOS and/or band structure plot on a denser k-grid.

  Highest occupied state (VBM) at    -10.55243091 eV (relative to internal zero)
  | Occupation number:      1.00000000
  | K-point:       1 at    0.000000    0.000000    0.000000 (in units of recip. lattice)
  | Spin channel:        1

  Lowest unoccupied state (CBM) at   -10.00888175 eV (relative to internal zero)
  | Occupation number:      0.00000000
  | K-point:       1 at    0.000000    0.000000    0.000000 (in units of recip. lattice)
  | Spin channel:        1

  ESTIMATED overall HOMO-LUMO gap:      0.54354916 eV between HOMO at k-point 1 and LUMO at k-point 1
  | This appears to be a direct band gap.
  The gap value is above 0.2 eV. Unless you are using a very sparse k-point grid,
  this system is most likely an insulator or a semiconductor.

  Total energy components:
  | Sum of eigenvalues            :       -4793.10809461 Ha     -130427.10731259 eV
  | XC energy correction          :        -475.70369484 Ha      -12944.55614826 eV
  | XC potential correction       :         615.01930134 Ha       16735.52668358 eV
  | Free-atom electrostatic energy:       -3435.69912181 Ha      -93490.12982988 eV
  | Hartree energy correction     :          29.50782352 Ha         802.94873161 eV
  | Entropy correction            :          -0.00000000 Ha          -0.00000000 eV
  | ---------------------------
  | Total energy                  :       -8059.98378640 Ha     -219323.31787554 eV
  | Total energy, T -> 0          :       -8059.98378640 Ha     -219323.31787554 eV  <-- do not rely on this value for anything but (periodic) metals
  | Electronic free energy        :       -8059.98378640 Ha     -219323.31787554 eV

  Derived energy quantities:
  | Kinetic energy                :        8153.89699687 Ha      221878.82635519 eV
  | Electrostatic energy          :      -15738.17708843 Ha     -428257.58808247 eV
  | Energy correction for multipole
  | error in Hartree potential    :           0.07402587 Ha           2.01434628 eV
  | Sum of eigenvalues per atom                           :       -5434.46280469 eV
  | Total energy (T->0) per atom                          :       -9138.47157815 eV  <-- do not rely on this value for anything but (periodic) metals
  | Electronic free energy per atom                       :       -9138.47157815 eV
  End evaluation of scaled ZORA corrections.
  | Time for scaled ZORA corrections            :        2.948 s           2.948 s
------------------------------------------------------------

  Energy and forces in a compact form:
  | Total energy uncorrected      :         -0.219323317875538E+06 eV
  | Total energy corrected        :         -0.219323317875538E+06 eV  <-- do not rely on this value for anything but (periodic) metals
  | Electronic free energy        :         -0.219323317875538E+06 eV

  ------------------------------------ 
  Start decomposition of the XC Energy 
  ------------------------------------ 
  X and C from original XC functional choice 
  Hartree-Fock Energy :          0.000000000 Ha              0.000000000 eV
  X Energy            :       -463.747808739 Ha         -12619.219934634 eV
  C Energy            :        -11.955886097 Ha           -325.336213621 eV
  XC Energy w/o HF    :       -475.703694836 Ha         -12944.556148256 eV
  Total XC Energy     :       -475.703694836 Ha         -12944.556148256 eV
  ------------------------------------ 
  LDA X and C from self-consistent density 
  X Energy LDA        :       -430.338505064 Ha         -11710.106526453 eV
  C Energy LDA        :        -23.494439456 Ha           -639.316225650 eV
  ------------------------------------ 
  End decomposition of the XC Energy 
  ------------------------------------ 

------------------------------------------------------------

  ------------------------------------------------------------
                   Starting Mulliken Analysis
  ------------------------------------------------------------

  Performing Mulliken charge analysis on all atoms.
  Full analysis will be written to separate file 'Mulliken.out'.
  Summary of the per-atom charge analysis:
  |
  |  atom       electrons          charge             l=0             l=1             l=2             l=3
  |     1        8.361684       -0.361684        3.891984        4.457653        0.012046
  |     2        8.632087       -0.632087        3.858529        4.763216        0.010342
  |     3       20.675079        1.324921        6.084550       12.420849        2.048567        0.121113
  |     4       20.918363        1.081637        6.040859       12.508306        2.226731        0.142466
  |     5        8.638060       -0.638060        3.857639        4.770084        0.010337
  |     6        8.569164       -0.569164        3.842012        4.716033        0.011119
  |     7        8.589717       -0.589717        3.838295        4.740685        0.010736
  |     8        9.448397       -0.448397        3.937534        5.498630        0.012233
  |     9       20.674503        1.325497        6.089959       12.390356        2.078035        0.116152
  |    10       20.926556        1.073444        6.042450       12.497463        2.244857        0.141786
  |    11        8.619774       -0.619774        3.859957        4.749139        0.010678
  |    12        8.392080       -0.392080        3.889394        4.490646        0.012040
  |    13        8.361684       -0.361684        3.891984        4.457653        0.012046
  |    14        8.633441       -0.633441        3.858607        4.764528        0.010306
  |    15       20.675079        1.324921        6.084550       12.420849        2.048567        0.121113
  |    16       20.905279        1.094721        6.038648       12.505064        2.219270        0.142296
  |    17        8.632238       -0.632238        3.858371        4.763517        0.010350
  |    18        8.569164       -0.569164        3.842012        4.716033        0.011119
  |    19        8.589717       -0.589717        3.838295        4.740685        0.010736
  |    20        8.618245       -0.618245        3.858493        4.748912        0.010839
  |    21       20.674503        1.325497        6.089959       12.390356        2.078035        0.116152
  |    22       20.905897        1.094103        6.038692       12.509133        2.212979        0.145093
  |    23        8.597209       -0.597209        3.861415        4.725161        0.010634
  |    24        8.392080       -0.392080        3.889394        4.490646        0.012040
  |
  | Total      304.000000        1.000000
 
  Summary of the per-atom spin analysis:
  |
  |  atom   spin      l=0         l=1         l=2         l=3
  |     1   -0.000000   -0.000000   -0.000000    0.000000
  |     2    0.000000    0.000000    0.000000    0.000000
  |     3    0.000000    0.000000   -0.000000    0.000000   -0.000000
  |     4   -0.000000    0.000000   -0.000000   -0.000000   -0.000000
  |     5    0.000000   -0.000000    0.000000    0.000000
  |     6    0.000000    0.000000    0.000000    0.000000
  |     7    0.000000    0.000000    0.000000   -0.000000
  |     8    0.000000    0.000000    0.000000    0.000000
  |     9    0.000000   -0.000000    0.000000    0.000000   -0.000000
  |    10    0.000000    0.000000   -0.000000    0.000000   -0.000000
  |    11   -0.000000   -0.000000    0.000000    0.000000
  |    12    0.000000   -0.000000    0.000000   -0.000000
  |    13    0.000000    0.000000   -0.000000    0.000000
  |    14    0.000000   -0.000000    0.000000    0.000000
  |    15   -0.000000   -0.000000    0.000000    0.000000    0.000000
  |    16    0.000000   -0.000000    0.000000    0.000000    0.000000
  |    17   -0.000000   -0.000000   -0.000000    0.000000
  |    18    0.000000    0.000000    0.000000    0.000000
  |    19    0.000000   -0.000000    0.000000    0.000000
  |    20    0.000000   -0.000000    0.000000    0.000000
  |    21   -0.000000   -0.000000   -0.000000    0.000000    0.000000
  |    22   -0.000000   -0.000000   -0.000000   -0.000000    0.000000
  |    23    0.000000   -0.000000    0.000000   -0.000000
  |    24    0.000000   -0.000000    0.000000   -0.000000
  |
  | Total    0.000000
 
  Writing Mulliken decomposition to disk ...

  Mulliken analysis                                       :  max(cpu_time)    wall_clock(cpu1)
  | Time for Mulliken analysis                            :          4.923               4.925
  | Total time for Mulliken analysis                      :          4.923               4.925
------------------------------------------------------------

------------------------------------------------------------------------------
  Final output of selected total energy values:

  The following output summarizes some interesting total energy values
  at the end of a run (AFTER all relaxation, molecular dynamics, etc.).

  | Total energy of the DFT / Hartree-Fock s.c.f. calculation      :        -219323.317875538 eV
  | Final zero-broadening corrected energy (caution - metals only) :        -219323.317875538 eV
  | For reference only, the value of 1 Hartree used in FHI-aims is :             27.211384500 eV
  | For reference only, the overall average (free atom contribution
  | + realspace contribution) of the electrostatic potential after
  | s.c.f. convergence is                                          :             -5.276597326 eV

  Before relying on these values, please be sure to understand exactly which
  total energy value is referred to by a given number. Different objects may
  all carry the same name 'total energy'. Definitions:

  Total energy of the DFT / Hartree-Fock s.c.f. calculation:
  | Note that this energy does not include ANY quantities calculated after the
  | s.c.f. cycle, in particular not ANY RPA, MP2, etc. many-body perturbation terms.
  | Scalar relativistic effects have been included in the 'scaled ZORA' approximation.

  Final zero-broadening corrected energy:
  | For metallic systems only, a broadening of the occupation numbers at the Fermi
  | level can be extrapolated back to zero broadening by an electron-gas inspired
  | formula. For all systems that are not real metals, this value can be
  | meaningless and should be avoided.

------------------------------------------------------------------------------
  Methods described in the following list of references were used in this FHI-aims run.
  If you publish the results, please make sure to cite these reference if they apply.
  FHI-aims is an academic code, and for our developers (often, Ph.D. students
  and postdocs), scientific credit in the community is essential.
  Thank you for helping us!

  For any use of FHI-aims, please cite:

    Volker Blum, Ralf Gehrke, Felix Hanke, Paula Havu, Ville Havu,
    Xinguo Ren, Karsten Reuter, and Matthias Scheffler
    'Ab initio molecular simulations with numeric atom-centered orbitals'
    Computer Physics Communications 180, 2175-2196 (2009)
    http://doi.org/10.1016/j.cpc.2009.06.022


  The provided symmetry information was generated with SPGlib:

    Atsushi Togo, Yusuke Seto, Dimitar Pashov
    SPGlib 1.7.3 obtained from http://spglib.sourceforge.net
    Licence: New BSD license
    Copyright (C) 2008 Atsushi Togo


  The ELSI infrastructure was used in your run to solve the Kohn-Sham electronic structure.
  Please check out https://wordpress.elsi-interchange.org to learn more.
  If scalability is important for your project, please acknowledge ELSI by citing:

    V. W-z. Yu, F. Corsetti, A. Garcia, W. P. Huhn, M. Jacquelin, W. Jia,
    B. Lange, L. Lin, J. Lu, W. Mi, A. Seifitokaldani, A. Vazquez-Mayagoitia,
    C. Yang, H. Yang, and V. Blum
    'ELSI: A unified software interface for Kohn-Sham electronic structure solvers'
    Computer Physics Communications 222, 267-285 (2018).
    http://doi.org/10.1016/j.cpc.2017.09.007


  For the real-space grid partitioning and parallelization used in this calculation, please cite:

    Ville Havu, Volker Blum, Paula Havu, and Matthias Scheffler,
    'Efficient O(N) integration for all-electron electronic structure calculation'
    'using numerically tabulated basis functions'
    Journal of Computational Physics 228, 8367-8379 (2009).
    http://doi.org/10.1016/j.jcp.2009.08.008

  Of course, there are many other important community references, e.g., those cited in the
  above references. Our list is limited to references that describe implementations in the
  FHI-aims code. The reason is purely practical (length of this list) - please credit others as well.

------------------------------------------------------------
          Leaving FHI-aims.
          Date     :  20250324, Time     :  160449.498

          Computational steps:
          | Number of self-consistency cycles          :           47
          | Number of SCF (re)initializations          :            1

          Detailed time accounting                     :  max(cpu_time)    wall_clock(cpu1)
          | Total time                                  :      317.525 s         317.538 s
          | Preparation time                            :        0.512 s           0.511 s
          | Boundary condition initalization            :        0.051 s           0.052 s
          | Grid partitioning                           :        0.141 s           0.141 s
          | Preloading free-atom quantities on grid     :        0.352 s           0.353 s
          | Free-atom superposition energy              :        0.036 s           0.036 s
          | Total time for integrations                 :       97.049 s          97.052 s
          | Total time for solution of K.-S. equations  :       43.136 s          43.141 s
          | Total time for density update               :      102.139 s         102.138 s
          | Total time for mixing & preconditioning     :       55.685 s          55.681 s
          | Total time for Hartree multipole update     :        0.122 s           0.121 s
          | Total time for Hartree multipole sum        :       10.315 s          10.319 s
          | Total time for total energy evaluation      :        0.042 s           0.044 s
          | Total time for scaled ZORA corrections      :        2.948 s           2.948 s
          | Total time for Mulliken analysis            :        4.924 s           4.925 s

          Partial memory accounting:
          | Residual value for overall tracked memory usage across tasks:     0.000000 MB (should be 0.000000 MB)
          | Peak values for overall tracked memory usage:
          |   Minimum:       41.041 MB (on task  5 after allocating zora_vector2)
          |   Maximum:       46.372 MB (on task  1 after allocating zora_vector2)
          |   Average:       42.296 MB
          | Largest tracked array allocation:
          |   Minimum:        8.519 MB (hamiltonian on task  0)
          |   Maximum:        8.519 MB (hamiltonian on task  0)
          |   Average:        8.519 MB
          Note:  These values currently only include a subset of arrays which are explicitly tracked.
          The "true" memory usage will be greater.

          Have a nice day.
------------------------------------------------------------
