------------------------------------------------------------
          Invoking FHI-aims ...

          When using FHI-aims, please cite the following reference:

            Volker Blum, Ralf Gehrke, Felix Hanke, Paula Havu,
            Ville Havu, Xinguo Ren, Karsten Reuter, and Matthias Scheffler,
            'Ab Initio Molecular Simulations with Numeric Atom-Centered Orbitals',
            Computer Physics Communications 180, 2175-2196 (2009)

          In addition, many other developments in FHI-aims are likely important for
          your particular application. If so, please cite them. A partial list of references
          is written at the end of this file. Thank you for giving credit to the authors
          of these developments.

          For general information about FHI-aims please find us at

            https://fhi-aims.org

          Online tutorials can be found at

            https://fhi-aims-club.gitlab.io/tutorials/tutorials-overview/

          For any questions about FHI-aims, please visit our slack channel at

            https://fhi-aims.slack.com

          and our main development and support site at

            https://aims-git.rz-berlin.mpg.de .

          The latter site, in particular, has a wiki to collect information, as well
          as an issue tracker to log discussions, suggest improvements, and report issues
          or bugs. https://aims-git.rz-berlin.mpg.de is also the main development site
          of the project and all new and updated code versions can be obtained there.
          Please send an email to aims-coordinators@fhi-berlin.mpg.de and we will add
          you to these sites. They are for you and everyone is welcome there.

------------------------------------------------------------



  Date     :  20241006, Time     :  222621.763
  Time zero on CPU 1             :   0.401582000000000E+00  s.
  Internal wall clock time zero  :           497485581.763  s.

  FHI-aims created a unique identifier for this run for later identification
  aims_uuid : 2A409DF1-4143-4B13-A4D4-82093DCFDE81

  Build configuration of the current instance of FHI-aims
  -------------------------------------------------------
  FHI-aims version      : 240605
  Commit number         : b001b2e18
  CMake host system     : Linux-6.5.0-41-generic
  CMake version         : 3.22.1
  Fortran compiler      : /opt/intel/oneapi/mpi/2021.12/bin/mpiifort (IntelLLVM) version 2024.1.0
  Fortran compiler flags: -fc=ifx -O3 -ip -fp-model precise
  C compiler            : /opt/intel/oneapi/mpi/2021.12/bin/mpiicc (IntelLLVM) version 2024.1.0
  C compiler flags      : -cc=icx -O3 -ip -fp-model precise -std=gnu99
  C++ compiler          : /opt/intel/oneapi/mpi/2021.12/bin/mpiicpc (IntelLLVM) version 2024.1.0
  C++ compiler flags    : -cxx=icpx -O3 -ip -fp-model precise -std=c++11
  HIP compiler          :
  HIP compiler flags    :
  HIP GPU arch          :
  Using MPI
  Using ScaLAPACK
  Using LibXC
  Using i-PI
  Using RLSY
  Linking against: /opt/intel/oneapi/mkl/2024.1/lib/intel64/libmkl_intel_lp64.so
                   /opt/intel/oneapi/mkl/2024.1/lib/intel64/libmkl_sequential.so
                   /opt/intel/oneapi/mkl/2024.1/lib/intel64/libmkl_core.so
                   /opt/intel/oneapi/mkl/2024.1/lib/intel64/libmkl_blacs_intelmpi_lp64.so
                   /opt/intel/oneapi/mkl/2024.1/lib/intel64/libmkl_scalapack_lp64.so
                   /opt/intel/oneapi/mkl/2024.1/lib/intel64/libmkl_core.so

  Using       32 parallel tasks.
  Task        0 on host RSL-arvutus reporting.
  Task        1 on host RSL-arvutus reporting.
  Task        2 on host RSL-arvutus reporting.
  Task        3 on host RSL-arvutus reporting.
  Task        4 on host RSL-arvutus reporting.
  Task        5 on host RSL-arvutus reporting.
  Task        6 on host RSL-arvutus reporting.
  Task        7 on host RSL-arvutus reporting.
  Task        8 on host RSL-arvutus reporting.
  Task        9 on host RSL-arvutus reporting.
  Task       10 on host RSL-arvutus reporting.
  Task       11 on host RSL-arvutus reporting.
  Task       12 on host RSL-arvutus reporting.
  Task       13 on host RSL-arvutus reporting.
  Task       14 on host RSL-arvutus reporting.
  Task       15 on host RSL-arvutus reporting.
  Task       16 on host RSL-arvutus reporting.
  Task       17 on host RSL-arvutus reporting.
  Task       18 on host RSL-arvutus reporting.
  Task       19 on host RSL-arvutus reporting.
  Task       20 on host RSL-arvutus reporting.
  Task       21 on host RSL-arvutus reporting.
  Task       22 on host RSL-arvutus reporting.
  Task       23 on host RSL-arvutus reporting.
  Task       24 on host RSL-arvutus reporting.
  Task       25 on host RSL-arvutus reporting.
  Task       26 on host RSL-arvutus reporting.
  Task       27 on host RSL-arvutus reporting.
  Task       28 on host RSL-arvutus reporting.
  Task       29 on host RSL-arvutus reporting.
  Task       30 on host RSL-arvutus reporting.
  Task       31 on host RSL-arvutus reporting.

  Memory overcommitment is allowed on your operating system.

  Obtaining array dimensions for all initial allocations:
  
  -----------------------------------------------------------------------
  Parsing control.in (first pass over file, find array dimensions only).
  The contents of control.in will be repeated verbatim below
  unless switched off by setting 'verbatim_writeout .false.' .
  in the first line of control.in .
  -----------------------------------------------------------------------
  
    xc              pbe
    relativistic    atomic_zora scalar
    KS_method	  serial
    k_grid          2 4 1
  
    spin		  collinear
    default_initial_moment	0.0
  
    output          Mulliken
  
  
  ################################################################################
  #
  #  FHI-aims code project
  #  VB, Fritz-Haber Institut, 2009
  #
  #  Suggested "light" defaults for Ti atom (to be pasted into control.in file)
  #  Be sure to double-check any results obtained with these settings for post-processing,
  #  e.g., with the "tight" defaults and larger basis sets.
  #
  ################################################################################
    species        Ti
  #     global species definitions
      nucleus             22
      mass                47.867
  #
      l_hartree           4
  #
      cut_pot             3.5          1.5  1.0
      basis_dep_cutoff    1e-4
  #
      radial_base         48 5.0
      radial_multiplier   1
      angular_grids       specified
        division   0.5171   50
        division   0.9824  110
        division   1.2917  194
        division   1.4940  302
  #      division   1.6934  434
  #      division   1.8425  590
  #      division   2.1901  770
  #      division   2.2896  974
  #      division   2.8244 1202
  #      outer_grid  974
        outer_grid  302
  ################################################################################
  #
  #  Definition of "minimal" basis
  #
  ################################################################################
  #     valence basis states
      valence      4  s   2.
      valence      3  p   6.
      valence      3  d   2.
  #     ion occupancy
      ion_occ      4  s   1.
      ion_occ      3  p   6.
      ion_occ      3  d   1.
  ################################################################################
  #
  #  Suggested additional basis functions. For production calculations,
  #  uncomment them one after another (the most important basis functions are
  #  listed first).
  #
  #  Constructed for dimers: 1.6 A, 1.85 A, 2.5 A, 3.25 A, 4.25 A
  #
  ################################################################################
  #  "First tier" - improvements: -396.25 meV to -19.41 meV
       hydro 4 f 8
       hydro 3 d 2.7
       ionic 4 p auto
  #     hydro 5 g 11.6
       ionic 4 s auto
  #  "Second tier" - improvements: -16.30 meV to -2.03 meV
  #     hydro 3 d 4.4
  #     hydro 6 h 16
  #     hydro 4 f 9.4
  #     hydro 4 p 4.5
  #     hydro 1 s 0.5
  #  "Third tier" - improvements: -6.28 meV to -0.37 meV
  #     hydro 4 d 6.4
  #     hydro 4 f 10
  #     hydro 5 g 12
  #     hydro 2 p 1.7
  #     hydro 6 h 16.4
  #     hydro 4 s 3.8
  #  Further basis functions: -0.45 meV and smaller improvements
  #     hydro 3 d 8.8
  #     hydro 5 p 18
  #     hydro 4 f 22.4
  #     hydro 5 f 7.2  # -0.16 meV
  #     hydro 3 d 2.1  # -0.11 meV
  #     hydro 5 g 7.4  # -0.09 meV
  
  
  ################################################################################
  #
  #  FHI-aims code project
  #  VB, Fritz-Haber Institut, 2009
  #
  #  Suggested "light" defaults for O atom (to be pasted into control.in file)
  #  Be sure to double-check any results obtained with these settings for post-processing,
  #  e.g., with the "tight" defaults and larger basis sets.
  #
  ################################################################################
    species        O
  #     global species definitions
      nucleus             8
      mass                15.9994
  #
      l_hartree           4
  #
      cut_pot             3.5  1.5  1.0
      basis_dep_cutoff    1e-4
  #
      radial_base         36 5.0
      radial_multiplier   1
       angular_grids specified
        division   0.2659   50
        division   0.4451  110
        division   0.6052  194
        division   0.7543  302
  #      division   0.8014  434
  #      division   0.8507  590
  #      division   0.8762  770
  #      division   0.9023  974
  #      division   1.2339 1202
  #      outer_grid 974
        outer_grid 302
  ################################################################################
  #
  #  Definition of "minimal" basis
  #
  ################################################################################
  #     valence basis states
      valence      2  s   2.
      valence      2  p   4.
  #     ion occupancy
      ion_occ      2  s   1.
      ion_occ      2  p   3.
  ################################################################################
  #
  #  Suggested additional basis functions. For production calculations,
  #  uncomment them one after another (the most important basis functions are
  #  listed first).
  #
  #  Constructed for dimers: 1.0 A, 1.208 A, 1.5 A, 2.0 A, 3.0 A
  #
  ################################################################################
  #  "First tier" - improvements: -699.05 meV to -159.38 meV
       hydro 2 p 1.8
       hydro 3 d 7.6
       hydro 3 s 6.4
  #  "Second tier" - improvements: -49.91 meV to -5.39 meV
  #     hydro 4 f 11.6
  #     hydro 3 p 6.2
  #     hydro 3 d 5.6
  #     hydro 5 g 17.6
  #     hydro 1 s 0.75
  #  "Third tier" - improvements: -2.83 meV to -0.50 meV
  #     ionic 2 p auto
  #     hydro 4 f 10.8
  #     hydro 4 d 4.7
  #     hydro 2 s 6.8
  #  "Fourth tier" - improvements: -0.40 meV to -0.12 meV
  #     hydro 3 p 5
  #     hydro 3 s 3.3
  #     hydro 5 g 15.6
  #     hydro 4 f 17.6
  #     hydro 4 d 14
  # Further basis functions - -0.08 meV and below
  #     hydro 3 s 2.1
  #     hydro 4 d 11.6
  #     hydro 3 p 16
  #     hydro 2 s 17.2
  
  ################################################################################
  #
  #  "Core" basis functions and numerical settings for O atom.
  #  Based on “tight” defaults (V. Blum, 2009).
  #
  ################################################################################
    species        O1
  #     global species definitions
      nucleus             8.
      mass                15.9994
  #
      l_hartree           6
  #
      cut_pot             4.0  2.0  1.0
      basis_dep_cutoff    1e-4
  #
      radial_base         36 7.0
      radial_multiplier   2
       angular_grids specified
        division   0.1817   50
        division   0.3417  110
        division   0.4949  194
        division   0.6251  302
        division   0.8014  434
  #      division   0.8507  590
  #      division   0.8762  770
  #      division   0.9023  974
  #      division   1.2339 1202
  #      outer_grid 974
        outer_grid  434
  ################################################################################
  #
  #  Definition of "minimal" basis
  #
  ################################################################################
  #     valence basis states
      valence      2  s   2.
      valence      2  p   4.
  #     ion occupancy
      ion_occ      2  s   1.
      ion_occ      2  p   3.
  ################################################################################
  #
  #  Suggested additional basis functions. For production calculations,
  #  uncomment them one after another (the most important basis functions are
  #  listed first).
  #
  #  Constructed for dimers: 1.0 A, 1.208 A, 1.5 A, 2.0 A, 3.0 A
  #
  ################################################################################
  #  "First tier" - improvements: -699.05 meV to -159.38 meV
       hydro 2 p 1.8
       hydro 3 d 7.6
       hydro 3 s 6.4
  #  "Second tier" - improvements: -49.91 meV to -5.39 meV
       hydro 4 f 11.6
       hydro 3 p 6.2
       hydro 3 d 5.6
       hydro 5 g 17.6
       hydro 1 s 0.75
  #  "Third tier" - improvements: -2.83 meV to -0.50 meV
       ionic 2 p auto
       hydro 4 f 10.8
       hydro 4 d 4.7
       hydro 2 s 6.8
  #  "Fourth tier" - improvements: -0.40 meV to -0.12 meV
  #     hydro 3 p 5
  #     hydro 3 s 3.3
  #     hydro 5 g 15.6
  #     hydro 4 f 17.6
  #     hydro 4 d 14
  # Further basis functions - -0.08 meV and below
  #     hydro 3 s 2.1
  #     hydro 4 d 11.6
  #     hydro 3 p 16
  #     hydro 2 s 17.2
  
  # Additional basis functions for atom with a core hole
       hydro 1 s 12.0
       hydro 1 s 10.0
       hydro 1 s 6.0
       hydro 2 s 10.0
       hydro 2 p 8.0
       hydro 2 p 6.0
       hydro 3 d 8.0
  
  -----------------------------------------------------------------------
  Completed first pass over input file control.in .
  -----------------------------------------------------------------------
  
  
  -----------------------------------------------------------------------
  Parsing geometry.in (first pass over file, find array dimensions only).
  The contents of geometry.in will be repeated verbatim below
  unless switched off by setting 'verbatim_writeout .false.' .
  in the first line of geometry.in .
  -----------------------------------------------------------------------
  
  lattice_vector 13.132253 0.000000 0.000000
  lattice_vector 0.000000 5.945765 0.000000
  lattice_vector 0.000000 0.000000 41.856174
  
  atom 13.132253 0.000000 15.000000 Ti
  atom 3.283063 1.486441 15.000000 Ti
  atom 1.276729 1.486441 15.000029 O1
  atom 3.283086 0.000000 16.276767 O
  atom 6.566086 0.000000 17.006468 O
  atom 2.006317 1.486441 18.283206 O
  atom 3.283046 0.000000 18.283235 Ti
  atom 6.566109 1.486441 18.283235 Ti
  atom 4.559775 1.486441 18.283265 O
  atom 0.000005 0.000000 19.560002 O
  atom 3.283006 0.000000 20.289704 O
  atom 5.289362 1.486441 21.566441 O
  atom 6.566091 0.000000 21.566471 Ti
  atom 3.283028 1.486441 21.566471 Ti
  atom 1.276694 1.486441 21.566500 O
  atom 3.283051 0.000000 22.843237 O
  atom 6.566051 0.000000 23.572939 O
  atom 2.006281 1.486441 24.849676 O
  atom 3.283010 0.000000 24.849706 Ti
  atom 6.566074 1.486441 24.849706 Ti
  atom 4.559740 1.486441 24.849735 O
  atom 6.566096 0.000000 26.126473 O
  atom 3.282970 0.000000 26.856174 O
  atom 13.132253 2.972883 15.000000 Ti
  atom 3.283063 4.459324 15.000000 Ti
  atom 1.276729 4.459324 15.000029 O
  atom 3.283086 2.972883 16.276767 O
  atom 6.566086 2.972883 17.006468 O
  atom 2.006317 4.459324 18.283206 O
  atom 3.283046 2.972883 18.283235 Ti
  atom 6.566109 4.459324 18.283235 Ti
  atom 4.559775 4.459324 18.283265 O
  atom 0.000005 2.972883 19.560002 O
  atom 3.283006 2.972883 20.289704 O
  atom 5.289362 4.459324 21.566441 O
  atom 6.566091 2.972883 21.566471 Ti
  atom 3.283028 4.459324 21.566471 Ti
  atom 1.276694 4.459324 21.566500 O
  atom 3.283051 2.972883 22.843237 O
  atom 6.566051 2.972883 23.572939 O
  atom 2.006281 4.459324 24.849676 O
  atom 3.283010 2.972883 24.849706 Ti
  atom 6.566074 4.459324 24.849706 Ti
  atom 4.559740 4.459324 24.849735 O
  atom 6.566096 2.972883 26.126473 O
  atom 3.282970 2.972883 26.856174 O
  atom 6.566126 0.000000 15.000000 Ti
  atom 9.849190 1.486441 15.000000 Ti
  atom 7.842856 1.486441 15.000029 O
  atom 9.849212 0.000000 16.276767 O
  atom 13.132213 0.000000 17.006468 O
  atom 8.572443 1.486441 18.283206 O
  atom 9.849172 0.000000 18.283235 Ti
  atom 13.132235 1.486441 18.283235 Ti
  atom 11.125901 1.486441 18.283265 O
  atom 6.566131 0.000000 19.560002 O
  atom 9.849132 0.000000 20.289704 O
  atom 11.855489 1.486441 21.566441 O
  atom 13.132218 0.000000 21.566471 Ti
  atom 9.849155 1.486441 21.566471 Ti
  atom 7.842820 1.486441 21.566500 O
  atom 9.849177 0.000000 22.843237 O
  atom 13.132178 0.000000 23.572939 O
  atom 8.572408 1.486441 24.849676 O
  atom 9.849137 0.000000 24.849706 Ti
  atom 13.132200 1.486441 24.849706 Ti
  atom 11.125866 1.486441 24.849735 O
  atom 13.132223 0.000000 26.126473 O
  atom 9.849097 0.000000 26.856174 O
  atom 6.566126 2.972883 15.000000 Ti
  atom 9.849190 4.459324 15.000000 Ti
  atom 7.842856 4.459324 15.000029 O
  atom 9.849212 2.972883 16.276767 O
  atom 13.132213 2.972883 17.006468 O
  atom 8.572443 4.459324 18.283206 O
  atom 9.849172 2.972883 18.283235 Ti
  atom 13.132235 4.459324 18.283235 Ti
  atom 11.125901 4.459324 18.283265 O
  atom 6.566131 2.972883 19.560002 O
  atom 9.849132 2.972883 20.289704 O
  atom 11.855489 4.459324 21.566441 O
  atom 13.132218 2.972883 21.566471 Ti
  atom 9.849155 4.459324 21.566471 Ti
  atom 7.842820 4.459324 21.566500 O
  atom 9.849177 2.972883 22.843237 O
  atom 13.132178 2.972883 23.572939 O
  atom 8.572408 4.459324 24.849676 O
  atom 9.849137 2.972883 24.849706 Ti
  atom 13.132200 4.459324 24.849706 Ti
  atom 11.125866 4.459324 24.849735 O
  atom 13.132223 2.972883 26.126473 O
  atom 9.849097 2.972883 26.856174 O
  
  -----------------------------------------------------------------------
  Completed first pass over input file geometry.in .
  -----------------------------------------------------------------------
  

  Basic array size parameters:
  | Number of species                 :        3
  | Number of atoms                   :       92
  | Number of lattice vectors         :        3
  | Max. basis fn. angular momentum   :        4
  | Max. atomic/ionic basis occupied n:        4
  | Max. number of basis fn. types    :        3
  | Max. radial fns per species/type  :       18
  | Max. logarithmic grid size        :     1383
  | Max. radial integration grid size :       73
  | Max. angular integration grid size:      434
  | Max. angular grid division number :        8
  | Radial grid for Hartree potential :     1383
  | Number of spin channels           :        2

------------------------------------------------------------
          Reading file control.in.
------------------------------------------------------------
  XC: Using PBE gradient-corrected functionals.
  Scalar relativistic treatment of kinetic energy: on-site free-atom approximation to ZORA.
  Kohn-Sham eigenvalues and eigenfunctions calculated by LAPACK via ELSI.
  Found k-point grid:         2         4         1
  Spin treatment: Spin density functional theory - collinear spins.
  Initial spin moment per atom:   0.0000
  Mulliken charge analysis will be performed and summarised to the main output.
  Full Mulliken charge analysis will be written to file 'Mulliken.out'.
 
  Reading configuration options for species Ti                  .
  | Found nuclear charge :  22.0000
  | Found atomic mass :    47.8670000000000      amu
  | Found l_max for Hartree potential  :   4
  | Found cutoff potl. onset [A], width [A], scale factor :    3.50000    1.50000    1.00000
  | Threshold for basis-dependent cutoff potential is   0.100000E-03
  | Found data for basic radial integration grid :    48 points, outermost radius =    5.000 A
  | Found multiplier for basic radial grid :   1
  | Found angular grid specification: user-specified.
  | Specified grid contains     5 separate shells.
  | Check grid settings after all constraints further below.
  | Found free-atom valence shell :  4 s   2.000
  | Found free-atom valence shell :  3 p   6.000
  | Found free-atom valence shell :  3 d   2.000
  | Found free-ion valence shell :  4 s   1.000
  | Found free-ion valence shell :  3 p   6.000
  | Found free-ion valence shell :  3 d   1.000
  | Found hydrogenic basis function :  4 f   8.000
  | Found hydrogenic basis function :  3 d   2.700
  | Found ionic basis function :  4 p , default cutoff radius.
  | Found ionic basis function :  4 s , default cutoff radius.
 | Encountered keyword species, ending the description of species Ti                  .
  Species Ti                  : Missing cutoff potential type.
  Defaulting to exp(1/x)/(1-x)^2 type cutoff potential.
  Species Ti: No 'logarithmic' tag. Using default grid for free atom:
  | Default logarithmic grid data [bohr] : 0.1000E-03 0.1000E+03 0.1012E+01
  | Will include ionic basis functions of  2.0-fold positive Ti                   ion.
  Species Ti: On-site basis accuracy parameter (for Gram-Schmidt orthonormalisation) not specified.
  Using default value basis_acc =  0.1000000E-03.
  Species Ti                  : Using default innermost maximum threshold i_radial=  2 for radial functions.
  Species Ti                  : Default cutoff onset for free atom density etc. : 0.35000000E+01 AA.
  Species Ti                  : Basic radial grid will be enhanced according to radial_multiplier =   1, to contain    48 grid points.
 
  Reading configuration options for species O                   .
  | Found nuclear charge :   8.0000
  | Found atomic mass :    15.9994000000000      amu
  | Found l_max for Hartree potential  :   4
  | Found cutoff potl. onset [A], width [A], scale factor :    3.50000    1.50000    1.00000
  | Threshold for basis-dependent cutoff potential is   0.100000E-03
  | Found data for basic radial integration grid :    36 points, outermost radius =    5.000 A
  | Found multiplier for basic radial grid :   1
  | Found angular grid specification: user-specified.
  | Specified grid contains     5 separate shells.
  | Check grid settings after all constraints further below.
  | Found free-atom valence shell :  2 s   2.000
  | Found free-atom valence shell :  2 p   4.000
  | Found free-ion valence shell :  2 s   1.000
  | Found free-ion valence shell :  2 p   3.000
  | Found hydrogenic basis function :  2 p   1.800
  | Found hydrogenic basis function :  3 d   7.600
  | Found hydrogenic basis function :  3 s   6.400
 | Encountered keyword species, ending the description of species O                   .
  Species O                   : Missing cutoff potential type.
  Defaulting to exp(1/x)/(1-x)^2 type cutoff potential.
  Species O : No 'logarithmic' tag. Using default grid for free atom:
  | Default logarithmic grid data [bohr] : 0.1000E-03 0.1000E+03 0.1012E+01
  Species O : On-site basis accuracy parameter (for Gram-Schmidt orthonormalisation) not specified.
  Using default value basis_acc =  0.1000000E-03.
  Species O                   : Using default innermost maximum threshold i_radial=  2 for radial functions.
  Species O                   : Default cutoff onset for free atom density etc. : 0.35000000E+01 AA.
  Species O                   : Basic radial grid will be enhanced according to radial_multiplier =   1, to contain    36 grid points.
 
  Reading configuration options for species O1                  .
  | Found nuclear charge :   8.0000
  | Found atomic mass :    15.9994000000000      amu
  | Found l_max for Hartree potential  :   6
  | Found cutoff potl. onset [A], width [A], scale factor :    4.00000    2.00000    1.00000
  | Threshold for basis-dependent cutoff potential is   0.100000E-03
  | Found data for basic radial integration grid :    36 points, outermost radius =    7.000 A
  | Found multiplier for basic radial grid :   2
  | Found angular grid specification: user-specified.
  | Specified grid contains     6 separate shells.
  | Check grid settings after all constraints further below.
  | Found free-atom valence shell :  2 s   2.000
  | Found free-atom valence shell :  2 p   4.000
  | Found free-ion valence shell :  2 s   1.000
  | Found free-ion valence shell :  2 p   3.000
  | Found hydrogenic basis function :  2 p   1.800
  | Found hydrogenic basis function :  3 d   7.600
  | Found hydrogenic basis function :  3 s   6.400
  | Found hydrogenic basis function :  4 f  11.600
  | Found hydrogenic basis function :  3 p   6.200
  | Found hydrogenic basis function :  3 d   5.600
  | Found hydrogenic basis function :  5 g  17.600
  | Found hydrogenic basis function :  1 s   0.750
  | Found ionic basis function :  2 p , default cutoff radius.
  | Found hydrogenic basis function :  4 f  10.800
  | Found hydrogenic basis function :  4 d   4.700
  | Found hydrogenic basis function :  2 s   6.800
  | Found hydrogenic basis function :  1 s  12.000
  | Found hydrogenic basis function :  1 s  10.000
  | Found hydrogenic basis function :  1 s   6.000
  | Found hydrogenic basis function :  2 s  10.000
  | Found hydrogenic basis function :  2 p   8.000
  | Found hydrogenic basis function :  2 p   6.000
  | Found hydrogenic basis function :  3 d   8.000
  Species O1                  : Missing cutoff potential type.
  Defaulting to exp(1/x)/(1-x)^2 type cutoff potential.
  Species O1: No 'logarithmic' tag. Using default grid for free atom:
  | Default logarithmic grid data [bohr] : 0.1000E-03 0.1000E+03 0.1012E+01
  | Will include ionic basis functions of  2.0-fold positive O1                   ion.
  Species O1: On-site basis accuracy parameter (for Gram-Schmidt orthonormalisation) not specified.
  Using default value basis_acc =  0.1000000E-03.
  Species O1                  : Using default innermost maximum threshold i_radial=  2 for radial functions.
  Species O1                  : Default cutoff onset for free atom density etc. : 0.40000000E+01 AA.
  Species O1                  : Basic radial grid will be enhanced according to radial_multiplier =   2, to contain    73 grid points.
 
  Finished reading input file 'control.in'.
 
------------------------------------------------------------


------------------------------------------------------------
          Reading geometry description geometry.in.
------------------------------------------------------------
  | The smallest distance between any two atoms is         1.95947539 AA.
  | The first atom of this pair is atom number                     88 .
  | The second atom of this pair is atom number                    90 .
  | Wigner-Seitz cell of the first atom image           0     0     0 .
  | (The Wigner-Seitz cell of the second atom is 0 0 0  by definition.)

  Symmetry information by spglib:
  | Precision set to  0.1E-04
  | Number of Operations  : 2
  | Space group           : 6
  | International         : Pm
  | Schoenflies           : Cs^1
  Input structure read successfully.
  The structure contains       92 atoms,  and a total of       1184.000 electrons.

  Input geometry:
  | Unit cell:
  |       13.13225300        0.00000000        0.00000000
  |        0.00000000        5.94576500        0.00000000
  |        0.00000000        0.00000000       41.85617400
  | Atomic structure:
  |       Atom                x [A]            y [A]            z [A]
  |    1: Species Ti           13.13225300        0.00000000       15.00000000
  |    2: Species Ti            3.28306300        1.48644100       15.00000000
  |    3: Species O1            1.27672900        1.48644100       15.00002900
  |    4: Species O             3.28308600        0.00000000       16.27676700
  |    5: Species O             6.56608600        0.00000000       17.00646800
  |    6: Species O             2.00631700        1.48644100       18.28320600
  |    7: Species Ti            3.28304600        0.00000000       18.28323500
  |    8: Species Ti            6.56610900        1.48644100       18.28323500
  |    9: Species O             4.55977500        1.48644100       18.28326500
  |   10: Species O             0.00000500        0.00000000       19.56000200
  |   11: Species O             3.28300600        0.00000000       20.28970400
  |   12: Species O             5.28936200        1.48644100       21.56644100
  |   13: Species Ti            6.56609100        0.00000000       21.56647100
  |   14: Species Ti            3.28302800        1.48644100       21.56647100
  |   15: Species O             1.27669400        1.48644100       21.56650000
  |   16: Species O             3.28305100        0.00000000       22.84323700
  |   17: Species O             6.56605100        0.00000000       23.57293900
  |   18: Species O             2.00628100        1.48644100       24.84967600
  |   19: Species Ti            3.28301000        0.00000000       24.84970600
  |   20: Species Ti            6.56607400        1.48644100       24.84970600
  |   21: Species O             4.55974000        1.48644100       24.84973500
  |   22: Species O             6.56609600        0.00000000       26.12647300
  |   23: Species O             3.28297000        0.00000000       26.85617400
  |   24: Species Ti           13.13225300        2.97288300       15.00000000
  |   25: Species Ti            3.28306300        4.45932400       15.00000000
  |   26: Species O             1.27672900        4.45932400       15.00002900
  |   27: Species O             3.28308600        2.97288300       16.27676700
  |   28: Species O             6.56608600        2.97288300       17.00646800
  |   29: Species O             2.00631700        4.45932400       18.28320600
  |   30: Species Ti            3.28304600        2.97288300       18.28323500
  |   31: Species Ti            6.56610900        4.45932400       18.28323500
  |   32: Species O             4.55977500        4.45932400       18.28326500
  |   33: Species O             0.00000500        2.97288300       19.56000200
  |   34: Species O             3.28300600        2.97288300       20.28970400
  |   35: Species O             5.28936200        4.45932400       21.56644100
  |   36: Species Ti            6.56609100        2.97288300       21.56647100
  |   37: Species Ti            3.28302800        4.45932400       21.56647100
  |   38: Species O             1.27669400        4.45932400       21.56650000
  |   39: Species O             3.28305100        2.97288300       22.84323700
  |   40: Species O             6.56605100        2.97288300       23.57293900
  |   41: Species O             2.00628100        4.45932400       24.84967600
  |   42: Species Ti            3.28301000        2.97288300       24.84970600
  |   43: Species Ti            6.56607400        4.45932400       24.84970600
  |   44: Species O             4.55974000        4.45932400       24.84973500
  |   45: Species O             6.56609600        2.97288300       26.12647300
  |   46: Species O             3.28297000        2.97288300       26.85617400
  |   47: Species Ti            6.56612600        0.00000000       15.00000000
  |   48: Species Ti            9.84919000        1.48644100       15.00000000
  |   49: Species O             7.84285600        1.48644100       15.00002900
  |   50: Species O             9.84921200        0.00000000       16.27676700
  |   51: Species O            13.13221300        0.00000000       17.00646800
  |   52: Species O             8.57244300        1.48644100       18.28320600
  |   53: Species Ti            9.84917200        0.00000000       18.28323500
  |   54: Species Ti           13.13223500        1.48644100       18.28323500
  |   55: Species O            11.12590100        1.48644100       18.28326500
  |   56: Species O             6.56613100        0.00000000       19.56000200
  |   57: Species O             9.84913200        0.00000000       20.28970400
  |   58: Species O            11.85548900        1.48644100       21.56644100
  |   59: Species Ti           13.13221800        0.00000000       21.56647100
  |   60: Species Ti            9.84915500        1.48644100       21.56647100
  |   61: Species O             7.84282000        1.48644100       21.56650000
  |   62: Species O             9.84917700        0.00000000       22.84323700
  |   63: Species O            13.13217800        0.00000000       23.57293900
  |   64: Species O             8.57240800        1.48644100       24.84967600
  |   65: Species Ti            9.84913700        0.00000000       24.84970600
  |   66: Species Ti           13.13220000        1.48644100       24.84970600
  |   67: Species O            11.12586600        1.48644100       24.84973500
  |   68: Species O            13.13222300        0.00000000       26.12647300
  |   69: Species O             9.84909700        0.00000000       26.85617400
  |   70: Species Ti            6.56612600        2.97288300       15.00000000
  |   71: Species Ti            9.84919000        4.45932400       15.00000000
  |   72: Species O             7.84285600        4.45932400       15.00002900
  |   73: Species O             9.84921200        2.97288300       16.27676700
  |   74: Species O            13.13221300        2.97288300       17.00646800
  |   75: Species O             8.57244300        4.45932400       18.28320600
  |   76: Species Ti            9.84917200        2.97288300       18.28323500
  |   77: Species Ti           13.13223500        4.45932400       18.28323500
  |   78: Species O            11.12590100        4.45932400       18.28326500
  |   79: Species O             6.56613100        2.97288300       19.56000200
  |   80: Species O             9.84913200        2.97288300       20.28970400
  |   81: Species O            11.85548900        4.45932400       21.56644100
  |   82: Species Ti           13.13221800        2.97288300       21.56647100
  |   83: Species Ti            9.84915500        4.45932400       21.56647100
  |   84: Species O             7.84282000        4.45932400       21.56650000
  |   85: Species O             9.84917700        2.97288300       22.84323700
  |   86: Species O            13.13217800        2.97288300       23.57293900
  |   87: Species O             8.57240800        4.45932400       24.84967600
  |   88: Species Ti            9.84913700        2.97288300       24.84970600
  |   89: Species Ti           13.13220000        4.45932400       24.84970600
  |   90: Species O            11.12586600        4.45932400       24.84973500
  |   91: Species O            13.13222300        2.97288300       26.12647300
  |   92: Species O             9.84909700        2.97288300       26.85617400

  Lattice parameters for 3D lattice (in Angstroms) :    13.132253    5.945765   41.856174
  Angle(s) between unit vectors (in degrees)       :    90.000000   90.000000   90.000000


  Quantities derived from the lattice vectors (in Angstrom^-1):
  | Reciprocal lattice vector 1:  0.478454  0.000000  0.000000
  | Reciprocal lattice vector 2:  0.000000  1.056750  0.000000
  | Reciprocal lattice vector 3:  0.000000  0.000000  0.150114
  | Unit cell volume                               :   0.326818E+04  Angstrom^3

  Fractional coordinates:
                         L1                L2                L3
       atom_frac         1.00000000        0.00000000        0.35837007  Ti
       atom_frac         0.24999998        0.24999996        0.35837007  Ti
       atom_frac         0.09722087        0.24999996        0.35837076  O1
       atom_frac         0.25000173        0.00000000        0.38887374  O
       atom_frac         0.49999692        0.00000000        0.40630728  O
       atom_frac         0.15277782        0.24999996        0.43681025  O
       atom_frac         0.24999869        0.00000000        0.43681095  Ti
       atom_frac         0.49999867        0.24999996        0.43681095  Ti
       atom_frac         0.34721955        0.24999996        0.43681166  O
       atom_frac         0.00000038        0.00000000        0.46731462  O
       atom_frac         0.24999564        0.00000000        0.48474818  O
       atom_frac         0.40277643        0.24999996        0.51525113  O
       atom_frac         0.49999730        0.00000000        0.51525185  Ti
       atom_frac         0.24999732        0.24999996        0.51525185  Ti
       atom_frac         0.09721820        0.24999996        0.51525254  O
       atom_frac         0.24999907        0.00000000        0.54575550  O
       atom_frac         0.49999425        0.00000000        0.56318905  O
       atom_frac         0.15277508        0.24999996        0.59369201  O
       atom_frac         0.24999595        0.00000000        0.59369272  Ti
       atom_frac         0.49999600        0.24999996        0.59369272  Ti
       atom_frac         0.34721689        0.24999996        0.59369342  O
       atom_frac         0.49999768        0.00000000        0.62419640  O
       atom_frac         0.24999290        0.00000000        0.64162993  O
       atom_frac         1.00000000        0.50000008        0.35837007  Ti
       atom_frac         0.24999998        0.75000004        0.35837007  Ti
       atom_frac         0.09722087        0.75000004        0.35837076  O
       atom_frac         0.25000173        0.50000008        0.38887374  O
       atom_frac         0.49999692        0.50000008        0.40630728  O
       atom_frac         0.15277782        0.75000004        0.43681025  O
       atom_frac         0.24999869        0.50000008        0.43681095  Ti
       atom_frac         0.49999867        0.75000004        0.43681095  Ti
       atom_frac         0.34721955        0.75000004        0.43681166  O
       atom_frac         0.00000038        0.50000008        0.46731462  O
       atom_frac         0.24999564        0.50000008        0.48474818  O
       atom_frac         0.40277643        0.75000004        0.51525113  O
       atom_frac         0.49999730        0.50000008        0.51525185  Ti
       atom_frac         0.24999732        0.75000004        0.51525185  Ti
       atom_frac         0.09721820        0.75000004        0.51525254  O
       atom_frac         0.24999907        0.50000008        0.54575550  O
       atom_frac         0.49999425        0.50000008        0.56318905  O
       atom_frac         0.15277508        0.75000004        0.59369201  O
       atom_frac         0.24999595        0.50000008        0.59369272  Ti
       atom_frac         0.49999600        0.75000004        0.59369272  Ti
       atom_frac         0.34721689        0.75000004        0.59369342  O
       atom_frac         0.49999768        0.50000008        0.62419640  O
       atom_frac         0.24999290        0.50000008        0.64162993  O
       atom_frac         0.49999996        0.00000000        0.35837007  Ti
       atom_frac         0.75000002        0.24999996        0.35837007  Ti
       atom_frac         0.59722090        0.24999996        0.35837076  O
       atom_frac         0.75000169        0.00000000        0.38887374  O
       atom_frac         0.99999695        0.00000000        0.40630728  O
       atom_frac         0.65277778        0.24999996        0.43681025  O
       atom_frac         0.74999865        0.00000000        0.43681095  Ti
       atom_frac         0.99999863        0.24999996        0.43681095  Ti
       atom_frac         0.84721951        0.24999996        0.43681166  O
       atom_frac         0.50000034        0.00000000        0.46731462  O
       atom_frac         0.74999560        0.00000000        0.48474818  O
       atom_frac         0.90277647        0.24999996        0.51525113  O
       atom_frac         0.99999733        0.00000000        0.51525185  Ti
       atom_frac         0.74999735        0.24999996        0.51525185  Ti
       atom_frac         0.59721816        0.24999996        0.51525254  O
       atom_frac         0.74999903        0.00000000        0.54575550  O
       atom_frac         0.99999429        0.00000000        0.56318905  O
       atom_frac         0.65277512        0.24999996        0.59369201  O
       atom_frac         0.74999598        0.00000000        0.59369272  Ti
       atom_frac         0.99999596        0.24999996        0.59369272  Ti
       atom_frac         0.84721685        0.24999996        0.59369342  O
       atom_frac         0.99999772        0.00000000        0.62419640  O
       atom_frac         0.74999294        0.00000000        0.64162993  O
       atom_frac         0.49999996        0.50000008        0.35837007  Ti
       atom_frac         0.75000002        0.75000004        0.35837007  Ti
       atom_frac         0.59722090        0.75000004        0.35837076  O
       atom_frac         0.75000169        0.50000008        0.38887374  O
       atom_frac         0.99999695        0.50000008        0.40630728  O
       atom_frac         0.65277778        0.75000004        0.43681025  O
       atom_frac         0.74999865        0.50000008        0.43681095  Ti
       atom_frac         0.99999863        0.75000004        0.43681095  Ti
       atom_frac         0.84721951        0.75000004        0.43681166  O
       atom_frac         0.50000034        0.50000008        0.46731462  O
       atom_frac         0.74999560        0.50000008        0.48474818  O
       atom_frac         0.90277647        0.75000004        0.51525113  O
       atom_frac         0.99999733        0.50000008        0.51525185  Ti
       atom_frac         0.74999735        0.75000004        0.51525185  Ti
       atom_frac         0.59721816        0.75000004        0.51525254  O
       atom_frac         0.74999903        0.50000008        0.54575550  O
       atom_frac         0.99999429        0.50000008        0.56318905  O
       atom_frac         0.65277512        0.75000004        0.59369201  O
       atom_frac         0.74999598        0.50000008        0.59369272  Ti
       atom_frac         0.99999596        0.75000004        0.59369272  Ti
       atom_frac         0.84721685        0.75000004        0.59369342  O
       atom_frac         0.99999772        0.50000008        0.62419640  O
       atom_frac         0.74999294        0.50000008        0.64162993  O

  Initial moments and charges:
  |  Atom   Moment         Charge        Species
  |     1   0.000000E+00   0.000000E+00   Ti
  |     2   0.000000E+00   0.000000E+00   Ti
  |     3   0.000000E+00   0.000000E+00   O1
  |     4   0.000000E+00   0.000000E+00   O
  |     5   0.000000E+00   0.000000E+00   O
  |     6   0.000000E+00   0.000000E+00   O
  |     7   0.000000E+00   0.000000E+00   Ti
  |     8   0.000000E+00   0.000000E+00   Ti
  |     9   0.000000E+00   0.000000E+00   O
  |    10   0.000000E+00   0.000000E+00   O
  |    11   0.000000E+00   0.000000E+00   O
  |    12   0.000000E+00   0.000000E+00   O
  |    13   0.000000E+00   0.000000E+00   Ti
  |    14   0.000000E+00   0.000000E+00   Ti
  |    15   0.000000E+00   0.000000E+00   O
  |    16   0.000000E+00   0.000000E+00   O
  |    17   0.000000E+00   0.000000E+00   O
  |    18   0.000000E+00   0.000000E+00   O
  |    19   0.000000E+00   0.000000E+00   Ti
  |    20   0.000000E+00   0.000000E+00   Ti
  |    21   0.000000E+00   0.000000E+00   O
  |    22   0.000000E+00   0.000000E+00   O
  |    23   0.000000E+00   0.000000E+00   O
  |    24   0.000000E+00   0.000000E+00   Ti
  |    25   0.000000E+00   0.000000E+00   Ti
  |    26   0.000000E+00   0.000000E+00   O
  |    27   0.000000E+00   0.000000E+00   O
  |    28   0.000000E+00   0.000000E+00   O
  |    29   0.000000E+00   0.000000E+00   O
  |    30   0.000000E+00   0.000000E+00   Ti
  |    31   0.000000E+00   0.000000E+00   Ti
  |    32   0.000000E+00   0.000000E+00   O
  |    33   0.000000E+00   0.000000E+00   O
  |    34   0.000000E+00   0.000000E+00   O
  |    35   0.000000E+00   0.000000E+00   O
  |    36   0.000000E+00   0.000000E+00   Ti
  |    37   0.000000E+00   0.000000E+00   Ti
  |    38   0.000000E+00   0.000000E+00   O
  |    39   0.000000E+00   0.000000E+00   O
  |    40   0.000000E+00   0.000000E+00   O
  |    41   0.000000E+00   0.000000E+00   O
  |    42   0.000000E+00   0.000000E+00   Ti
  |    43   0.000000E+00   0.000000E+00   Ti
  |    44   0.000000E+00   0.000000E+00   O
  |    45   0.000000E+00   0.000000E+00   O
  |    46   0.000000E+00   0.000000E+00   O
  |    47   0.000000E+00   0.000000E+00   Ti
  |    48   0.000000E+00   0.000000E+00   Ti
  |    49   0.000000E+00   0.000000E+00   O
  |    50   0.000000E+00   0.000000E+00   O
  |    51   0.000000E+00   0.000000E+00   O
  |    52   0.000000E+00   0.000000E+00   O
  |    53   0.000000E+00   0.000000E+00   Ti
  |    54   0.000000E+00   0.000000E+00   Ti
  |    55   0.000000E+00   0.000000E+00   O
  |    56   0.000000E+00   0.000000E+00   O
  |    57   0.000000E+00   0.000000E+00   O
  |    58   0.000000E+00   0.000000E+00   O
  |    59   0.000000E+00   0.000000E+00   Ti
  |    60   0.000000E+00   0.000000E+00   Ti
  |    61   0.000000E+00   0.000000E+00   O
  |    62   0.000000E+00   0.000000E+00   O
  |    63   0.000000E+00   0.000000E+00   O
  |    64   0.000000E+00   0.000000E+00   O
  |    65   0.000000E+00   0.000000E+00   Ti
  |    66   0.000000E+00   0.000000E+00   Ti
  |    67   0.000000E+00   0.000000E+00   O
  |    68   0.000000E+00   0.000000E+00   O
  |    69   0.000000E+00   0.000000E+00   O
  |    70   0.000000E+00   0.000000E+00   Ti
  |    71   0.000000E+00   0.000000E+00   Ti
  |    72   0.000000E+00   0.000000E+00   O
  |    73   0.000000E+00   0.000000E+00   O
  |    74   0.000000E+00   0.000000E+00   O
  |    75   0.000000E+00   0.000000E+00   O
  |    76   0.000000E+00   0.000000E+00   Ti
  |    77   0.000000E+00   0.000000E+00   Ti
  |    78   0.000000E+00   0.000000E+00   O
  |    79   0.000000E+00   0.000000E+00   O
  |    80   0.000000E+00   0.000000E+00   O
  |    81   0.000000E+00   0.000000E+00   O
  |    82   0.000000E+00   0.000000E+00   Ti
  |    83   0.000000E+00   0.000000E+00   Ti
  |    84   0.000000E+00   0.000000E+00   O
  |    85   0.000000E+00   0.000000E+00   O
  |    86   0.000000E+00   0.000000E+00   O
  |    87   0.000000E+00   0.000000E+00   O
  |    88   0.000000E+00   0.000000E+00   Ti
  |    89   0.000000E+00   0.000000E+00   Ti
  |    90   0.000000E+00   0.000000E+00   O
  |    91   0.000000E+00   0.000000E+00   O
  |    92   0.000000E+00   0.000000E+00   O

  Slab Identifier: This is Z-oriented slab and maximum thickness of the vacuum is: 30.000 Angstrom.
 
  Finished reading input file 'geometry.in'.
 

 
  Consistency checks for stacksize environment parameter are next.
 
  | Maximum stacksize for task 0: unlimited
  | Maximum stacksize for task 1: unlimited
  | Maximum stacksize for task 2: unlimited
  | Maximum stacksize for task 3: unlimited
  | Maximum stacksize for task 4: unlimited
  | Maximum stacksize for task 5: unlimited
  | Maximum stacksize for task 6: unlimited
  | Maximum stacksize for task 7: unlimited
  | Maximum stacksize for task 8: unlimited
  | Maximum stacksize for task 9: unlimited
  | Maximum stacksize for task 10: unlimited
  | Maximum stacksize for task 11: unlimited
  | Maximum stacksize for task 12: unlimited
  | Maximum stacksize for task 13: unlimited
  | Maximum stacksize for task 14: unlimited
  | Maximum stacksize for task 15: unlimited
  | Maximum stacksize for task 16: unlimited
  | Maximum stacksize for task 17: unlimited
  | Maximum stacksize for task 18: unlimited
  | Maximum stacksize for task 19: unlimited
  | Maximum stacksize for task 20: unlimited
  | Maximum stacksize for task 21: unlimited
  | Maximum stacksize for task 22: unlimited
  | Maximum stacksize for task 23: unlimited
  | Maximum stacksize for task 24: unlimited
  | Maximum stacksize for task 25: unlimited
  | Maximum stacksize for task 26: unlimited
  | Maximum stacksize for task 27: unlimited
  | Maximum stacksize for task 28: unlimited
  | Maximum stacksize for task 29: unlimited
  | Maximum stacksize for task 30: unlimited
  | Maximum stacksize for task 31: unlimited
  | Current stacksize for task 0: unlimited
  | Current stacksize for task 1: unlimited
  | Current stacksize for task 2: unlimited
  | Current stacksize for task 3: unlimited
  | Current stacksize for task 4: unlimited
  | Current stacksize for task 5: unlimited
  | Current stacksize for task 6: unlimited
  | Current stacksize for task 7: unlimited
  | Current stacksize for task 8: unlimited
  | Current stacksize for task 9: unlimited
  | Current stacksize for task 10: unlimited
  | Current stacksize for task 11: unlimited
  | Current stacksize for task 12: unlimited
  | Current stacksize for task 13: unlimited
  | Current stacksize for task 14: unlimited
  | Current stacksize for task 15: unlimited
  | Current stacksize for task 16: unlimited
  | Current stacksize for task 17: unlimited
  | Current stacksize for task 18: unlimited
  | Current stacksize for task 19: unlimited
  | Current stacksize for task 20: unlimited
  | Current stacksize for task 21: unlimited
  | Current stacksize for task 22: unlimited
  | Current stacksize for task 23: unlimited
  | Current stacksize for task 24: unlimited
  | Current stacksize for task 25: unlimited
  | Current stacksize for task 26: unlimited
  | Current stacksize for task 27: unlimited
  | Current stacksize for task 28: unlimited
  | Current stacksize for task 29: unlimited
  | Current stacksize for task 30: unlimited
  | Current stacksize for task 31: unlimited
 
  Consistency checks for the contents of control.in are next.
 
  MPI_IN_PLACE appears to work with this MPI implementation.
  | Keeping use_mpi_in_place .true. (see manual).
  Target number of points in a grid batch is not set. Defaulting to  100
  Method for grid partitioning is not set. Defaulting to parallel hash+maxmin partitioning.
  Batch size limit is not set. Defaulting to    200
  By default, will store active basis functions for each batch.
  If in need of memory, prune_basis_once .false. can be used to disable this option.
  communication_type for Hartree potential was not specified.
  Defaulting to calc_hartree .
  Defaulting to Pulay charge density mixer.
  Pulay mixer: Number of relevant iterations not set.
  Defaulting to    8 iterations.
  Pulay mixer: Number of initial linear mixing iterations not set.
  Defaulting to    0 iterations.
  Work space size for distributed Hartree potential not set.
  Defaulting to   0.200000E+03 MB.
  Mixing parameter for charge density mixing has not been set.
  Using default: charge_mix_param =     0.0500.
  The mixing parameter will be adjusted in iteration number     2 of each s.c.f. cycle (i.e., each geometry step).
  Mixing parameter for spin density mixing has not been set.
  Using charge_mix_param as default:     0.0500.
  Algorithm-dependent basis array size parameters:
  | n_max_pulay                         :        8
  Maximum number of self-consistency iterations not provided.
  Presetting  1000 iterations.
  Presetting      1001 iterations before the initial mixing cycle
  is restarted anyway using the sc_init_iter criterion / keyword.
  Presetting a factor      1.000 between actual scf density residual
  and density convergence criterion sc_accuracy_rho below which sc_init_iter
  takes no effect.
 * No s.c.f. convergence criteria (sc_accuracy_*) were provided in control.in.
 * The run will proceed with a reasonable default guess, but please check whether.
 * the s.c.f. cycles seem to take too much or too little time.
  Calculation of forces was not defined in control.in. No forces will be calculated.
  Geometry relaxation not requested: no relaxation will be performed.
 * Notice: The s.c.f. convergence criterion sc_accuracy_rho was not provided.
 * We used to stop in this case, and ask the user to provide reasonable
 * scf convergence criteria. However, this led some users to employ criteria
 * that led to extremely long run times, e.g., for simple relaxation.
 * We now preset a default value for sc_accuracy_rho if it is not set.
 * You may still wish to check if this setting is too tight or too loose for your needs.
 * Based on n_atoms and forces and force-correction status, FHI-aims chose sc_accuracy_rho =  0.391578E-05 .
  No accuracy limit for integral partition fn. given. Defaulting to  0.1000E-14.
  No threshold value for u(r) in integrations given. Defaulting to  0.1000E-05.
  No occupation type (smearing scheme) given. Defaulting to Gaussian broadening, width =  0.1000E-01 eV.
  The width will be adjusted in iteration number     2 of each s.c.f. cycle (i.e., each geometry step).
  No accuracy for occupation numbers given. Defaulting to  0.1000E-12.
  No threshold value for occupation numbers given. Defaulting to  0.0000E+00.
  No accuracy for fermi level given. Defaulting to  0.1000E-19.
  Maximum # of iterations to find E_F not set. Defaulting to  200.
  Will not use alltoall communication since running on < 1024 CPUs.
  Threshold for basis singularities not set.
  Default threshold for basis singularities:  0.1000E-04
  partition_type (choice of integration weights) for integrals was not specified.
  | Using a version of the partition function of Stratmann and coworkers ('stratmann_sparse').
  | At each grid point, the set of atoms used to build the partition table is smoothly restricted to
  | only those atoms whose free-atom density would be non-zero at that grid point.
  Partitioning for Hartree potential was not defined. Using partition_type for integrals.
  | Adjusted default value of keyword multip_moments_threshold to:       0.10000000E-11
  | This value may affect high angular momentum components of the Hartree potential in periodic systems.
  Angular momentum expansion for Kerker preconditioner not set explicitly.
  | Using default value of   0
  No explicit requirement for turning off preconditioner.
  | By default, it will be turned off when the charge convergence reaches
  | sc_accuracy_rho  =   0.391578E-05
  No special mixing parameter while Kerker preconditioner is on.
  Using default: charge_mix_param =     0.0500.
  No q(lm)/r^(l+1) cutoff set for long-range Hartree potential.
  | Using default value of  0.100000E-09 .
  | Verify using the multipole_threshold keyword.
  Defaulting to new monopole extrapolation.
  Density update method: automatic selection selected.
  Using density matrix based charge density update.
  Using density matrix based charge density update.
  Using packed matrix style: index .
  Defaulting to use time-reversal symmetry for k-point grid.
  Charge integration errors on the 3D integration grid will be compensated
  by explicit normalization and distribution of residual charges.
  Use the "compensate_multipole_errors" flag to change this behaviour.
  Set 'collect_eigenvectors' to be '.true.' for all serial calculations. This is mandatory.
  Set 'collect_eigenvectors' to be '.true.' for KS_method lapack_fast and serial.
  Found potential conflicts with setting 'use_local_index' for this calculation. Will not set it.
 
  Consistency checks for the contents of geometry.in are next.
 

  Range separation radius for Ewald summation (hartree_convergence_parameter):      4.77692198 bohr.
  Number of empty states per atom not set in control.in - providing a guess from actual geometry.
  | Total number of empty states used during s.c.f. cycle:      356
  If you use a very high smearing, use empty_states (per atom!) in control.in to increase this value.

  Structure-dependent array size parameters: 
  | Number of distinct atom types in initial rho :        3
  | Maximum number of distinct radial functions  :       39
  | Maximum number of basis functions            :     1888
  | Number of Kohn-Sham states (occupied + empty):      948
------------------------------------------------------------
  After read_input_data [GB]:    711.03

  Performing system and environment tests:
  *** Environment variable OMP_NUM_THREADS is not set
  *** For performance reasons you might want to set it to 1
  | Checking for ScaLAPACK...
  | Testing pdtran()...
  | All pdtran() tests passed.
  After prepare_system [GB]:    710.91

------------------------------------------------------------
          Preparing all fixed parts of the calculation.
------------------------------------------------------------
  Determining machine precision:
    2.225073858507201E-308
  Setting up grids for atomic and cluster calculations.

  Creating wave function, potential, and density for free atoms.
  Runtime choices for atomic solver:
  | atomic solver xc        : PBE
  | compute density gradient: 1
  | compute kinetic density : F

  Species: Ti

  List of occupied orbitals and eigenvalues:
    n    l              occ      energy [Ha]    energy [eV]
    1    0           2.0000      -179.959082     -4896.9358
    2    0           2.0000       -19.727662      -536.8170
    3    0           2.0000        -2.283029       -62.1244
    4    0           2.0000        -0.148384        -4.0377
    2    1           6.0000       -16.317278      -444.0157
    3    1           6.0000        -1.409348       -38.3503
    3    2           2.0000        -0.139340        -3.7916


  Species: O

  List of occupied orbitals and eigenvalues:
    n    l              occ      energy [Ha]    energy [eV]
    1    0           2.0000       -18.926989      -515.0296
    2    0           2.0000        -0.880247       -23.9527
    2    1           4.0000        -0.331514        -9.0210


  Species: O1

  List of occupied orbitals and eigenvalues:
    n    l              occ      energy [Ha]    energy [eV]
    1    0           2.0000       -18.927378      -515.0401
    2    0           2.0000        -0.880539       -23.9607
    2    1           4.0000        -0.331811        -9.0290

  Spin-polarized or charged system:
  Charge density initialized according to selected moments and charges.

  Creating spin-polarized density from free atoms.

  Species: Ti
  Charge:   0.000000
  Moment:   0.000000

  List of occupied orbitals and eigenvalues:
    n    l      energy [Ha]    energy [eV]    occupation
  Spin-up
    1    0      -179.959082     -4896.9358     1.00000000
    2    0       -19.727662      -536.8170     1.00000000
    3    0        -2.283029       -62.1244     1.00000000
    4    0        -0.148384        -4.0377     1.00000000
    2    1       -16.317278      -444.0157     3.00000000
    3    1        -1.409348       -38.3503     3.00000000
    3    2        -0.139340        -3.7916     1.00000000
  Spin-down
    1    0      -179.959082     -4896.9358     1.00000000
    2    0       -19.727662      -536.8170     1.00000000
    3    0        -2.283029       -62.1244     1.00000000
    4    0        -0.148384        -4.0377     1.00000000
    2    1       -16.317278      -444.0157     3.00000000
    3    1        -1.409348       -38.3503     3.00000000
    3    2        -0.139340        -3.7916     1.00000000


  Species: O1
  Charge:   0.000000
  Moment:   0.000000

  List of occupied orbitals and eigenvalues:
    n    l      energy [Ha]    energy [eV]    occupation
  Spin-up
    1    0       -18.927378      -515.0401     1.00000000
    2    0        -0.880539       -23.9607     1.00000000
    2    1        -0.331811        -9.0290     2.00000000
  Spin-down
    1    0       -18.927378      -515.0401     1.00000000
    2    0        -0.880539       -23.9607     1.00000000
    2    1        -0.331811        -9.0290     2.00000000


  Species: O
  Charge:   0.000000
  Moment:   0.000000

  List of occupied orbitals and eigenvalues:
    n    l      energy [Ha]    energy [eV]    occupation
  Spin-up
    1    0       -18.926989      -515.0296     1.00000000
    2    0        -0.880247       -23.9527     1.00000000
    2    1        -0.331514        -9.0210     2.00000000
  Spin-down
    1    0       -18.926989      -515.0296     1.00000000
    2    0        -0.880247       -23.9527     1.00000000
    2    1        -0.331514        -9.0210     2.00000000


  Adding cutoff potential to free-atom effective potential.
  Creating fixed part of basis set: Ionic, confined, hydrogenic.
 
  Ti                   ion:

  List of free ionic orbitals and eigenvalues:
    n    l      energy [Ha]    energy [eV]
    1    0      -180.819616     -4920.3521
    2    0       -20.608761      -560.7929
    3    0        -3.115729       -84.7833
    4    0        -0.697188       -18.9715
    2    1       -17.196209      -467.9327
    3    1        -2.231296       -60.7167
    3    2        -0.911363       -24.7995


  List of ionic basis orbitals and eigenvalues:
    n    l      energy [Ha]    energy [eV]    outer radius [A]
    4    1        -0.517739       -14.0884       4.592117
    4    0        -0.696824       -18.9615       4.536321

 
  Ti                   hydrogenic:
 
  List of hydrogenic basis orbitals: 
    n    l      effective z      eigenvalue [eV]  inner max. [A]     outer max. [A]     outer radius [A]   
    4    3         8.000000       -54.4222           1.059019           1.059019           4.267343
    3    2         2.700000       -10.7798           1.726925           1.726925           4.592117
 
 
  O                    hydrogenic:
 
  List of hydrogenic basis orbitals: 
    n    l      effective z      eigenvalue [eV]  inner max. [A]     outer max. [A]     outer radius [A]   
    2    1         1.800000       -10.9749           1.164242           1.164242           4.578029
    3    2         7.600000       -87.3180           0.624125           0.624125           3.251020
    3    0         6.400000       -61.9207           0.061167           1.081902           4.001998
 
 
  O1                   ion:

  List of free ionic orbitals and eigenvalues:
    n    l      energy [Ha]    energy [eV]
    1    0       -20.485570      -557.4407
    2    0        -2.134830       -58.0917
    2    1        -1.577627       -42.9294


  List of ionic basis orbitals and eigenvalues:
    n    l      energy [Ha]    energy [eV]    outer radius [A]
    2    1        -1.577621       -42.9293       3.541477

 
  O1                   hydrogenic:
 
  List of hydrogenic basis orbitals: 
    n    l      effective z      eigenvalue [eV]  inner max. [A]     outer max. [A]     outer radius [A]   
    2    1         1.800000       -11.0118           1.178562           1.178562           5.432602
    3    2         7.600000       -87.3182           0.624125           0.624125           3.541477
    3    0         6.400000       -61.9209           0.061167           1.081902           4.306578
    4    3        11.600000      -114.4238           0.731631           0.731631           3.585037
    3    1         6.200000       -58.1113           0.255680           1.030270           4.306578
    3    2         5.600000       -47.4081           0.847233           0.847233           4.413171
    5    4        17.600000      -168.5799           0.749740           0.749740           3.372465
    1    0         0.750000        -7.6499           0.705284           0.705284           5.366593
    4    3        10.800000       -99.1854           0.787313           0.787313           3.764702
    4    2         4.700000       -18.6841           0.758962           2.365807           5.499423
    2    0         6.800000      -157.2818           0.059689           0.406863           2.739620
    1    0        12.000000     -1959.2197           0.043971           0.043971           0.816724
    1    0        10.000000     -1360.5692           0.052821           0.052821           0.981101
    1    0         6.000000      -489.8049           0.088266           0.088266           1.561224
    2    0        10.000000      -340.1423           0.040365           0.278524           2.093567
    2    1         8.000000      -217.6911           0.265231           0.265231           2.365807
    2    1         6.000000      -122.4512           0.351348           0.351348           2.841960
    3    2         8.000000       -96.7515           0.594340           0.594340           3.455938
 
  Creating atomic-like basis functions for current effective potential.

  Species Ti                  :

  List of atomic basis orbitals and eigenvalues:
    n    l      energy [Ha]    energy [eV]    outer radius [A]
    1    0      -179.959082     -4896.9358       0.490254
    2    0       -19.727662      -536.8170       1.491292
    3    0        -2.283029       -62.1244       4.014314
    4    0        -0.148384        -4.0377       4.592117
    2    1       -16.317278      -444.0157       1.585290
    3    1        -1.409348       -38.3503       4.267343
    3    2        -0.139340        -3.7916       4.536321


  Species O                   :

  List of atomic basis orbitals and eigenvalues:
    n    l      energy [Ha]    energy [eV]    outer radius [A]
    1    0       -18.926989      -515.0296       1.415765
    2    0        -0.880247       -23.9527       4.413171
    2    1        -0.331514        -9.0210       4.522403


  Species O1                  :

  List of atomic basis orbitals and eigenvalues:
    n    l      energy [Ha]    energy [eV]    outer radius [A]
    1    0       -18.927378      -515.0401       1.415765
    2    0        -0.880539       -23.9607       5.048385
    2    1        -0.331811        -9.0290       5.301386

  Assembling full basis from fixed parts.
  | Species Ti :   atomic orbital   1 s accepted.
  | Species Ti :   atomic orbital   2 s accepted.
  | Species Ti :   atomic orbital   3 s accepted.
  | Species Ti :    ionic orbital   4 s accepted.
  | Species Ti :   atomic orbital   4 s accepted.
  | Species Ti :   atomic orbital   2 p accepted.
  | Species Ti :   atomic orbital   3 p accepted.
  | Species Ti :    ionic orbital   4 p accepted.
  | Species Ti :   atomic orbital   3 d accepted.
  | Species Ti :    hydro orbital   3 d accepted.
  | Species Ti :    hydro orbital   4 f accepted.
  | Species O :   atomic orbital   1 s accepted.
  | Species O :    hydro orbital   3 s accepted.
  | Species O :   atomic orbital   2 s accepted.
  | Species O :   atomic orbital   2 p accepted.
  | Species O :    hydro orbital   2 p accepted.
  | Species O :    hydro orbital   3 d accepted.
  | Species O1 :    hydro orbital   1 s accepted.
  | Species O1 :    hydro orbital   1 s accepted.
  | Species O1 :   atomic orbital   1 s accepted.
  | Species O1 :    hydro orbital   1 s accepted.
  | Species O1 :    hydro orbital   2 s accepted.
  | Species O1 :    hydro orbital   2 s accepted.
  | Species O1 :    hydro orbital   3 s accepted.
  | Species O1 :   atomic orbital   2 s accepted.
  | Species O1 :    hydro orbital   1 s accepted.
  | Species O1 :    hydro orbital   2 p accepted.
  | Species O1 :    hydro orbital   2 p accepted.
  | Species O1 :    ionic orbital   2 p accepted.
  | Species O1 :    hydro orbital   3 p accepted.
  | Species O1 :   atomic orbital   2 p accepted.
  | Species O1 :    hydro orbital   2 p accepted.
  | Species O1 :    hydro orbital   3 d accepted.
  | Species O1 :    hydro orbital   3 d accepted.
  | Species O1 :    hydro orbital   3 d accepted.
  | Species O1 :    hydro orbital   4 d accepted.
  | Species O1 :    hydro orbital   4 f accepted.
  | Species O1 :    hydro orbital   4 f accepted.
  | Species O1 :    hydro orbital   5 g accepted.
 
  Basis size parameters after reduction:
  | Total number of radial functions:       39
  | Total number of basis functions :     1888
 
  Per-task memory consumption for arrays in subroutine allocate_ext:
  |          13.863516MB.
  Testing on-site integration grid accuracy.
  |  Species  Function  <phi|h_atom|phi> (log., in eV)  <phi|h_atom|phi> (rad., in eV)
           1        1              -4896.9357674450              -4896.9322830202
           1        2               -536.8170048508               -536.8169722333
           1        3                -62.1243896260                -62.1243889283
           1        4                 -3.2653235630                 -3.2692838808
           1        5                  6.7987747276                  6.5460721883 ***
           1        6               -444.0157161949               -444.0157165810
           1        7                -38.3503235548                -38.3503234963
           1        8                  0.2923930877                  0.2745948116
           1        9                 -3.7933400649                 -3.7959244177
           1       10                  6.3288803616                  6.2510614929 ***
           1       11                 27.8451455747                 27.8452636416
           2       12               -515.0295626295               -515.0294562738
           2       13                 15.1698434419                 15.1699322204
           2       14                -21.6038822678                -21.6039118105
           2       15                 -9.0211123393                 -9.0212703513
           2       16                  8.3047696391                  8.2854840999
           2       17                 45.8428042125                 45.8427461222
           3       18               -272.9322507263               -272.9201922371
           3       19               1665.9089384428               1665.9689459310 ***
           3       20               2095.2037268945               2095.2740316190 ***
           3       21               3047.3679718515               3047.0126721058 ***
           3       22               3234.6000205573               3231.5687071925 ***
           3       23               2428.4660356492               2422.2375593106 ***
           3       24                896.7802862158                893.3913916681 ***
           3       25               3128.2108268826               3108.2674944362 ***
           3       26                 71.8616615187                 71.1575837008 ***
           3       27                 15.4122562036                 15.4122564500
           3       28                101.7989356251                101.7989355629
           3       29                121.1064459338                121.1064460856
           3       30                271.5759585347                271.5759823164
           3       31                159.3966255928                159.3962927972
           3       32                153.6473243407                153.6504704037
           3       33                 50.7421815376                 50.7421815946
           3       34                 88.5010368311                 88.5010331056
           3       35                 82.9872957917                 82.9873669214
           3       36                 36.7418806245                 36.7419113216
           3       37                 85.4133898762                 85.4133899074
           3       38                115.1018427582                115.1018451832
           3       39                142.1023296234                142.1023296272
 * Note: Onsite integrals marked "***" above are less accurate than
 * onsite_accuracy_threshold =    0.03000 eV. Usually, this is harmless.
 * When in doubt, tighten the "radial" and/or "radial_multiplier" flags to check.

  Preparing densities etc. for the partition functions (integrals / Hartree potential).

  Preparations completed.
  max(cpu_time)          :      0.602 s.
  Wall clock time (cpu1) :      0.600 s.
------------------------------------------------------------
  After prepare_scf [GB]:    708.84

  Initializing index lists of integration centers etc. from given atomic structure:
  Mapping all atomic coordinates to central unit cell.

  Initializing the k-points
  Using symmetry for reducing the k-points
  | k-points reduced from:        8 to        6
  | Number of k-points                             :         6
  The eigenvectors in the calculations are COMPLEX.
  | K-points in task   0:         0
  | K-points in task   1:         1
  | K-points in task   2:         1
  | K-points in task   3:         1
  | K-points in task   4:         1
  | K-points in task   5:         1
  | K-points in task   6:         1
  | K-points in task   7:         0
  | K-points in task   8:         0
  | K-points in task   9:         0
  | K-points in task  10:         0
  | K-points in task  11:         0
  | K-points in task  12:         0
  | K-points in task  13:         0
  | K-points in task  14:         0
  | K-points in task  15:         0
  | K-points in task  16:         0
  | K-points in task  17:         0
  | K-points in task  18:         0
  | K-points in task  19:         0
  | K-points in task  20:         0
  | K-points in task  21:         0
  | K-points in task  22:         0
  | K-points in task  23:         0
  | K-points in task  24:         0
  | K-points in task  25:         0
  | K-points in task  26:         0
  | K-points in task  27:         0
  | K-points in task  28:         0
  | K-points in task  29:         0
  | K-points in task  30:         0
  | K-points in task  31:         0
  | Number of basis functions in the Hamiltonian integrals :     11527
  | Number of basis functions in a single unit cell        :      1888
  | Number of centers in hartree potential         :      3312
  | Number of centers in hartree multipole         :      1670
  | Number of centers in electron density summation:      1368
  | Number of centers in basis integrals           :      1425
  | Number of centers in integrals                 :       698
  | Number of centers in hamiltonian               :      1815
  | Consuming          4 KiB for k_phase.
  | Number of super-cells (origin) [n_cells]                     :         135
  | Number of super-cells (after PM_index) [n_cells]             :          46
  | Number of super-cells in hamiltonian [n_cells_in_hamiltonian]:          46
  | Size of matrix packed + index [n_hamiltonian_matrix_size] :     3217409
  After initialize_bc_dependent_lists [GB]:    708.86

------------------------------------------------------------
          Begin self-consistency loop: Initialization.

          Date     :  20241006, Time     :  222622.505
------------------------------------------------------------
  Available memory per node after initialize_hartree_non_periodic_ewald [GB]:    708.86
  | Estimated reciprocal-space cutoff momentum G_max:         1.99947249 bohr^-1 .
  | Reciprocal lattice points for long-range Hartree potential:    3014
  Available memory per node after initialize_recip_hartree_potential [GB]:    708.86
  Available memory per node after initialize_scalapack [GB]:    708.86
  Available memory per node after aims_elsi_init_scf [GB]:    708.86
  Available memory per node after initialize_fixed_grids [GB]:    708.86
  Partitioning the integration grid into batches with parallel hashing+maxmin method.
  | Number of batches:     6449
  | Maximal batch size:     176
  | Minimal batch size:      10
  | Average batch size:      93.218
  | Standard deviation of batch sizes:      32.277

  Integration load balanced across    32 MPI tasks.
  Work distribution over tasks is as follows:
  Task     0 has      18781 integration points.
  Task     1 has      18750 integration points.
  Task     2 has      18832 integration points.
  Task     3 has      18767 integration points.
  Task     4 has      18790 integration points.
  Task     5 has      18761 integration points.
  Task     6 has      18798 integration points.
  Task     7 has      18745 integration points.
  Task     8 has      18815 integration points.
  Task     9 has      18791 integration points.
  Task    10 has      18847 integration points.
  Task    11 has      18787 integration points.
  Task    12 has      18747 integration points.
  Task    13 has      18827 integration points.
  Task    14 has      18792 integration points.
  Task    15 has      18796 integration points.
  Task    16 has      18793 integration points.
  Task    17 has      18755 integration points.
  Task    18 has      18747 integration points.
  Task    19 has      18802 integration points.
  Task    20 has      18831 integration points.
  Task    21 has      18790 integration points.
  Task    22 has      18757 integration points.
  Task    23 has      18793 integration points.
  Task    24 has      18779 integration points.
  Task    25 has      18820 integration points.
  Task    26 has      18786 integration points.
  Task    27 has      18790 integration points.
  Task    28 has      18827 integration points.
  Task    29 has      18785 integration points.
  Task    30 has      18743 integration points.
  Task    31 has      18742 integration points.
  Available memory per node after partition_grid [GB]:    709.32
  Initializing partition tables, free-atom densities, potentials, etc. across the integration grid (initialize_grid_storage).
  | initialize_grid_storage: Actual outermost partition radius vs. multipole_radius_free
  | (-- VB: in principle, multipole_radius_free should be larger, hence this output)
  | Species        1: Confinement radius =              4.999999999999999 AA, multipole_radius_free =              5.002391649902235 AA.
  | Species        1: outer_partition_radius set to              5.002391649902235 AA .
  | Species        2: Confinement radius =              4.999999999999999 AA, multipole_radius_free =              5.048384829883283 AA.
  | Species        2: outer_partition_radius set to              5.048384829883283 AA .
  | Species        3: Confinement radius =              6.000000000000000 AA, multipole_radius_free =              6.064445521808699 AA.
  | Species        3: outer_partition_radius set to              6.064445521808699 AA .
  | The sparse table of interatomic distances needs       8669.87 kbyte instead of     16245.00 kbyte of memory.
  | Net number of integration points:   601166
  | of which are non-zero points    :   497695
  | Numerical average free-atom electrostatic potential    :     -5.43330190 eV
  Available memory per node after initialize_grid_storage_p1 [GB]:    711.03
  Renormalizing the initial density to the exact electron count on the 3D integration grid.
  | Initial density: Formal number of electrons (from input files) :    1184.0000000000
  | Integrated number of electrons on 3D grid     :    1183.9956493402
  | Charge integration error                      :      -0.0043506598
  | Normalization factor for density and gradient :       1.0000036746
  Renormalizing the free-atom superposition density to the exact electron count on the 3D integration grid.
  | Formal number of electrons (from input files) :    1184.0000000000
  | Integrated number of electrons on 3D grid     :    1183.9956493402
  | Charge integration error                      :      -0.0043506598
  | Normalization factor for density and gradient :       1.0000036746
  Obtaining max. number of non-zero basis functions in each batch (get_n_compute_maxes).
  | Maximal number of non-zero basis functions:      851 in task     0
  | Maximal number of non-zero basis functions:      890 in task     1
  | Maximal number of non-zero basis functions:      839 in task     2
  | Maximal number of non-zero basis functions:      833 in task     3
  | Maximal number of non-zero basis functions:      827 in task     4
  | Maximal number of non-zero basis functions:      864 in task     5
  | Maximal number of non-zero basis functions:      859 in task     6
  | Maximal number of non-zero basis functions:      834 in task     7
  | Maximal number of non-zero basis functions:      851 in task     8
  | Maximal number of non-zero basis functions:      840 in task     9
  | Maximal number of non-zero basis functions:      879 in task    10
  | Maximal number of non-zero basis functions:      887 in task    11
  | Maximal number of non-zero basis functions:      840 in task    12
  | Maximal number of non-zero basis functions:      840 in task    13
  | Maximal number of non-zero basis functions:      858 in task    14
[...]
  |    24       21.407500        0.592500        6.494189       12.441369        2.414955        0.056987
  |    25       21.452465        0.547535        6.531226       12.444333        2.415469        0.061437
  |    26        8.662083       -0.662083        3.849331        4.798209        0.014543
  |    27        8.616835       -0.616835        3.848163        4.756298        0.012373
  |    28        8.637584       -0.637584        3.847384        4.780747        0.009452
  |    29        8.624573       -0.624573        3.846883        4.767795        0.009896
  |    30       20.763285        1.236715        5.965701       12.500225        2.153757        0.143602
  |    31       20.757700        1.242300        5.968853       12.499265        2.145474        0.144107
  |    32        8.628546       -0.628546        3.846965        4.771623        0.009957
  |    33        8.605154       -0.605154        3.850926        4.743807        0.010420
  |    34        8.626667       -0.626667        3.846576        4.770199        0.009891
  |    35        8.624247       -0.624247        3.847373        4.766995        0.009878
  |    36       20.753618        1.246382        5.962271       12.502378        2.145336        0.143633
  |    37       20.748214        1.251786        5.961326       12.503387        2.139065        0.144436
  |    38        8.624587       -0.624587        3.847449        4.767259        0.009880
  |    39        8.601233       -0.601233        3.849103        4.741770        0.010360
  |    40        8.610538       -0.610538        3.845207        4.754858        0.010473
  |    41        8.588729       -0.588729        3.856235        4.722297        0.010196
  |    42       20.849978        1.150022        6.028659       12.505577        2.172681        0.143061
  |    43       20.930282        1.069718        6.049014       12.523952        2.212790        0.144526
  |    44        8.588730       -0.588730        3.856232        4.722303        0.010196
  |    45        8.362579       -0.362579        3.894667        4.456369        0.011542
  |    46        8.156673       -0.156673        3.950335        4.199810        0.006529
  |    47       21.313511        0.686489        6.424174       12.427660        2.400262        0.061413
  |    48       21.368888        0.631112        6.469902       12.439856        2.397813        0.061317
  |    49        8.646533       -0.646533        3.855517        4.776415        0.014600
  |    50        8.599415       -0.599415        3.848407        4.738629        0.012379
  |    51        8.663570       -0.663570        3.844497        4.809601        0.009472
  |    52        8.624903       -0.624903        3.847686        4.767318        0.009898
  |    53       20.752277        1.247723        5.962098       12.499836        2.146629        0.143714
  |    54       20.804423        1.195577        5.973839       12.517438        2.169190        0.143957
  |    55        8.627709       -0.627709        3.845872        4.771883        0.009954
  |    56        8.602343       -0.602343        3.849880        4.742047        0.010416
  |    57        8.624107       -0.624107        3.846258        4.767956        0.009893
  |    58        8.624980       -0.624980        3.847384        4.767718        0.009878
  |    59       20.755579        1.244421        5.963117       12.502666        2.146175        0.143621
  |    60       20.745743        1.254257        5.961125       12.502600        2.137577        0.144440
  |    61        8.624313       -0.624313        3.847406        4.767028        0.009879
  |    62        8.601165       -0.601165        3.849056        4.741749        0.010360
  |    63        8.610786       -0.610786        3.845246        4.755067        0.010473
  |    64        8.588695       -0.588695        3.856237        4.722262        0.010196
  |    65       20.849875        1.150125        6.028615       12.505539        2.172661        0.143061
  |    66       20.930601        1.069399        6.049169       12.524089        2.212818        0.144524
  |    67        8.588719       -0.588719        3.856234        4.722289        0.010196
  |    68        8.362586       -0.362586        3.894671        4.456373        0.011542
  |    69        8.156671       -0.156671        3.950332        4.199810        0.006529
  |    70       21.313511        0.686489        6.424175       12.427660        2.400262        0.061413
  |    71       21.371019        0.628981        6.472437       12.438702        2.398564        0.061315
  |    72        8.646726       -0.646726        3.855866        4.776264        0.014595
  |    73        8.599416       -0.599416        3.848407        4.738629        0.012379
  |    74        8.663570       -0.663570        3.844497        4.809601        0.009472
  |    75        8.625045       -0.625045        3.847762        4.767385        0.009898
  |    76       20.752277        1.247723        5.962098       12.499836        2.146629        0.143714
  |    77       20.769254        1.230746        5.964319       12.502311        2.158378        0.144246
  |    78        8.626590       -0.626590        3.846017        4.770613        0.009959
  |    79        8.602343       -0.602343        3.849880        4.742047        0.010416
  |    80        8.624107       -0.624107        3.846259        4.767956        0.009893
  |    81        8.624517       -0.624517        3.847379        4.767260        0.009879
  |    82       20.755579        1.244421        5.963117       12.502666        2.146175        0.143621
  |    83       20.746040        1.253960        5.961317       12.502680        2.137607        0.144437
  |    84        8.624296       -0.624296        3.847400        4.767017        0.009879
  |    85        8.601165       -0.601165        3.849056        4.741749        0.010360
  |    86        8.610786       -0.610786        3.845247        4.755067        0.010473
  |    87        8.588696       -0.588696        3.856236        4.722263        0.010196
  |    88       20.849875        1.150125        6.028615       12.505538        2.172661        0.143061
  |    89       20.930565        1.069435        6.049107       12.524064        2.212869        0.144524
  |    90        8.588712       -0.588712        3.856234        4.722282        0.010196
  |    91        8.362586       -0.362586        3.894671        4.456373        0.011542
  |    92        8.156669       -0.156669        3.950332        4.199809        0.006529
  |
  | Total     1184.000000       -0.000000
 
  Summary of the per-atom spin analysis:
  |
  |  atom   spin      l=0         l=1         l=2         l=3         l=4
  |     1   -0.000000    0.000000    0.000000   -0.000000   -0.000000
  |     2   -0.000000   -0.000000   -0.000000   -0.000000    0.000000
  |     3   -0.000000   -0.000000   -0.000000   -0.000000   -0.000000   -0.000000
  |     4    0.000000   -0.000000    0.000000    0.000000
  |     5   -0.000000   -0.000000   -0.000000    0.000000
  |     6    0.000000   -0.000000    0.000000    0.000000
  |     7   -0.000000    0.000000   -0.000000   -0.000000   -0.000000
  |     8    0.000000    0.000000    0.000000    0.000000    0.000000
  |     9    0.000000   -0.000000    0.000000    0.000000
  |    10   -0.000000   -0.000000   -0.000000    0.000000
  |    11   -0.000000    0.000000   -0.000000   -0.000000
  |    12    0.000000   -0.000000    0.000000   -0.000000
  |    13    0.000000    0.000000   -0.000000    0.000000   -0.000000
  |    14    0.000000   -0.000000   -0.000000    0.000000   -0.000000
  |    15    0.000000   -0.000000    0.000000   -0.000000
  |    16   -0.000000   -0.000000   -0.000000    0.000000
  |    17   -0.000000   -0.000000   -0.000000    0.000000
  |    18    0.000000   -0.000000    0.000000   -0.000000
  |    19    0.000000    0.000000    0.000000    0.000000    0.000000
  |    20    0.000000    0.000000   -0.000000    0.000000   -0.000000
  |    21    0.000000   -0.000000    0.000000   -0.000000
  |    22   -0.000005   -0.000000   -0.000005   -0.000000
  |    23    0.000008    0.000000    0.000008    0.000000
  |    24   -0.000000    0.000000    0.000000   -0.000000   -0.000000
  |    25   -0.000000   -0.000000   -0.000000   -0.000000    0.000000
  |    26   -0.000000   -0.000000   -0.000000   -0.000000
  |    27    0.000000   -0.000000    0.000000    0.000000
  |    28   -0.000000   -0.000000   -0.000000    0.000000
  |    29    0.000000   -0.000000    0.000000    0.000000
  |    30   -0.000000    0.000000   -0.000000   -0.000000   -0.000000
  |    31    0.000000    0.000000    0.000000    0.000000    0.000000
  |    32    0.000000   -0.000000    0.000000    0.000000
  |    33   -0.000000    0.000000   -0.000000    0.000000
  |    34   -0.000000    0.000000   -0.000000   -0.000000
  |    35    0.000000   -0.000000    0.000000   -0.000000
  |    36    0.000000    0.000000    0.000000    0.000000   -0.000000
  |    37    0.000000   -0.000000   -0.000000    0.000000   -0.000000
  |    38    0.000000   -0.000000    0.000000   -0.000000
  |    39   -0.000000    0.000000   -0.000000   -0.000000
  |    40   -0.000000   -0.000000   -0.000000    0.000000
  |    41    0.000000   -0.000000    0.000000   -0.000000
  |    42    0.000000    0.000000   -0.000000    0.000000    0.000000
  |    43    0.000000    0.000000   -0.000000    0.000000   -0.000000
  |    44    0.000000   -0.000000    0.000000   -0.000000
  |    45   -0.000002   -0.000000   -0.000002   -0.000000
  |    46    0.000007    0.000000    0.000007    0.000000
  |    47    0.000000    0.000000    0.000000    0.000000    0.000000
  |    48   -0.000000   -0.000000   -0.000000   -0.000000   -0.000000
  |    49    0.000000    0.000000    0.000000   -0.000000
  |    50   -0.000000   -0.000000   -0.000000   -0.000000
  |    51   -0.000000   -0.000000   -0.000000    0.000000
  |    52   -0.000000   -0.000000   -0.000000    0.000000
  |    53    0.000000   -0.000000   -0.000000    0.000000   -0.000000
  |    54    0.000000    0.000000    0.000000    0.000000    0.000000
  |    55   -0.000000   -0.000000   -0.000000    0.000000
  |    56   -0.000000   -0.000000   -0.000000    0.000000
  |    57   -0.000000   -0.000000   -0.000000   -0.000000
  |    58   -0.000000   -0.000000   -0.000000    0.000000
  |    59    0.000000    0.000000   -0.000000    0.000000   -0.000000
  |    60   -0.000000   -0.000000   -0.000000   -0.000000   -0.000000
  |    61   -0.000000   -0.000000   -0.000000    0.000000
  |    62   -0.000000   -0.000000   -0.000000   -0.000000
  |    63   -0.000000   -0.000000   -0.000000    0.000000
  |    64   -0.000001   -0.000000   -0.000001   -0.000000
  |    65   -0.000000   -0.000000   -0.000000   -0.000000   -0.000000
  |    66    0.000000    0.000000   -0.000000    0.000000   -0.000000
  |    67   -0.000001   -0.000000   -0.000001   -0.000000
  |    68   -0.000005   -0.000000   -0.000005   -0.000000
  |    69   -0.000006   -0.000000   -0.000006   -0.000000
  |    70    0.000000    0.000000    0.000000    0.000000    0.000000
  |    71   -0.000000   -0.000000   -0.000000   -0.000000   -0.000000
  |    72    0.000000    0.000000    0.000000   -0.000000
  |    73   -0.000000   -0.000000   -0.000000   -0.000000
  |    74   -0.000000   -0.000000   -0.000000    0.000000
  |    75   -0.000000   -0.000000   -0.000000    0.000000
  |    76    0.000000   -0.000000   -0.000000    0.000000   -0.000000
  |    77    0.000000    0.000000    0.000000    0.000000    0.000000
  |    78   -0.000000   -0.000000   -0.000000    0.000000
  |    79   -0.000000    0.000000   -0.000000    0.000000
  |    80   -0.000000    0.000000   -0.000000   -0.000000
  |    81   -0.000000   -0.000000   -0.000000    0.000000
  |    82    0.000000    0.000000    0.000000    0.000000   -0.000000
  |    83   -0.000000   -0.000000   -0.000000   -0.000000   -0.000000
  |    84   -0.000000   -0.000000   -0.000000    0.000000
  |    85   -0.000000   -0.000000   -0.000000   -0.000000
  |    86   -0.000000   -0.000000   -0.000000    0.000000
  |    87   -0.000001   -0.000000   -0.000001   -0.000000
  |    88   -0.000000   -0.000000   -0.000000   -0.000000   -0.000000
  |    89    0.000000    0.000000   -0.000000    0.000000   -0.000000
  |    90   -0.000001   -0.000000   -0.000001   -0.000000
  |    91   -0.000002   -0.000000   -0.000002   -0.000000
  |    92    0.000001   -0.000000    0.000001   -0.000000
  |
  | Total   -0.000005
 
  Writing Mulliken decomposition to disk ...

  Mulliken analysis                                       :  max(cpu_time)    wall_clock(cpu1)
  | Time for Mulliken analysis                            :         26.181              26.182
  | Total time for Mulliken analysis                      :         26.181              26.182
------------------------------------------------------------

------------------------------------------------------------------------------
  Final output of selected total energy values:

  The following output summarizes some interesting total energy values
  at the end of a run (AFTER all relaxation, molecular dynamics, etc.).

  | Total energy of the DFT / Hartree-Fock s.c.f. calculation      :        -868566.227376107 eV
  | Final zero-broadening corrected energy (caution - metals only) :        -868566.287234493 eV
  | For reference only, the value of 1 Hartree used in FHI-aims is :             27.211384500 eV
  | For reference only, the overall average (free atom contribution
  | + realspace contribution) of the electrostatic potential after
  | s.c.f. convergence is                                          :             -5.254821891 eV

  Before relying on these values, please be sure to understand exactly which
  total energy value is referred to by a given number. Different objects may
  all carry the same name 'total energy'. Definitions:

  Total energy of the DFT / Hartree-Fock s.c.f. calculation:
  | Note that this energy does not include ANY quantities calculated after the
  | s.c.f. cycle, in particular not ANY RPA, MP2, etc. many-body perturbation terms.

  Final zero-broadening corrected energy:
  | For metallic systems only, a broadening of the occupation numbers at the Fermi
  | level can be extrapolated back to zero broadening by an electron-gas inspired
  | formula. For all systems that are not real metals, this value can be
  | meaningless and should be avoided.

------------------------------------------------------------------------------
  Methods described in the following list of references were used in this FHI-aims run.
  If you publish the results, please make sure to cite these reference if they apply.
  FHI-aims is an academic code, and for our developers (often, Ph.D. students
  and postdocs), scientific credit in the community is essential.
  Thank you for helping us!

  For any use of FHI-aims, please cite:

    Volker Blum, Ralf Gehrke, Felix Hanke, Paula Havu, Ville Havu,
    Xinguo Ren, Karsten Reuter, and Matthias Scheffler
    'Ab initio molecular simulations with numeric atom-centered orbitals'
    Computer Physics Communications 180, 2175-2196 (2009)
    http://doi.org/10.1016/j.cpc.2009.06.022


  The provided symmetry information was generated with SPGlib:

    Atsushi Togo, Yusuke Seto, Dimitar Pashov
    SPGlib 1.7.3 obtained from http://spglib.sourceforge.net
    Licence: New BSD license
    Copyright (C) 2008 Atsushi Togo


  The ELSI infrastructure was used in your run to solve the Kohn-Sham electronic structure.
  Please check out https://wordpress.elsi-interchange.org to learn more.
  If scalability is important for your project, please acknowledge ELSI by citing:

    V. W-z. Yu, F. Corsetti, A. Garcia, W. P. Huhn, M. Jacquelin, W. Jia,
    B. Lange, L. Lin, J. Lu, W. Mi, A. Seifitokaldani, A. Vazquez-Mayagoitia,
    C. Yang, H. Yang, and V. Blum
    'ELSI: A unified software interface for Kohn-Sham electronic structure solvers'
    Computer Physics Communications 222, 267-285 (2018).
    http://doi.org/10.1016/j.cpc.2017.09.007


  For the real-space grid partitioning and parallelization used in this calculation, please cite:

    Ville Havu, Volker Blum, Paula Havu, and Matthias Scheffler,
    'Efficient O(N) integration for all-electron electronic structure calculation'
    'using numerically tabulated basis functions'
    Journal of Computational Physics 228, 8367-8379 (2009).
    http://doi.org/10.1016/j.jcp.2009.08.008

  Of course, there are many other important community references, e.g., those cited in the
  above references. Our list is limited to references that describe implementations in the
  FHI-aims code. The reason is purely practical (length of this list) - please credit others as well.

 * A warning was issued further up regarding the CPU load.
   Some CPUs do not participate in the eigenvalue solution.
   In corner cases, this may be the correct behavior. Otherwise,
   consider using a scalapack/elpa version of the code for a parallel treatment.

   One or more s.c.f. cycles took more than 50 s.c.f. iterations.
   It might be worth adjusting your convergence settings. For example,
   metals need a larger broadening and a smaller "charge_mix_param" value than semiconductors.

------------------------------------------------------------
          Leaving FHI-aims.
          Date     :  20241007, Time     :  024244.489

          Computational steps:
          | Number of self-consistency cycles          :          474
          | Number of SCF (re)initializations          :            1

          Detailed time accounting                     :  max(cpu_time)    wall_clock(cpu1)
          | Total time                                  :    15382.151 s       15382.726 s
          | Preparation time                            :        0.602 s           0.600 s
          | Boundary condition initalization            :        0.088 s           0.089 s
          | Grid partitioning                           :        0.972 s           0.972 s
          | Preloading free-atom quantities on grid     :        1.998 s           1.998 s
          | Free-atom superposition energy              :        0.230 s           0.230 s
          | Total time for integrations                 :     1369.428 s        1369.471 s
          | Total time for solution of K.-S. equations  :     5781.081 s        5781.330 s
          | Total time for density update               :     3213.736 s        3213.872 s
          | Total time for mixing & preconditioning     :     4668.463 s        4668.639 s
          | Total time for Hartree multipole update     :        4.960 s           4.954 s
          | Total time for Hartree multipole sum        :      313.215 s         313.224 s
          | Total time for total energy evaluation      :        0.195 s           0.262 s
          | Total time for scaled ZORA corrections      :        0.000 s           0.000 s
          | Total time for Mulliken analysis            :       26.181 s          26.182 s

          Partial memory accounting:
          | Residual value for overall tracked memory usage across tasks:     0.000000 MB (should be 0.000000 MB)
          | Peak values for overall tracked memory usage:
          |   Minimum:      173.197 MB (on task 20 after allocating kdm)
          |   Maximum:      406.425 MB (on task  2 after allocating eval_tmp)
          |   Average:      217.337 MB
          | Largest tracked array allocation:
          |   Minimum:       54.391 MB (KS_eigenvector_complex on task  0)
          |   Maximum:       54.621 MB (KS_eigenvector_complex on task  1)
          |   Average:       54.434 MB
          Note:  These values currently only include a subset of arrays which are explicitly tracked.
          The "true" memory usage will be greater.

          Have a nice day.
------------------------------------------------------------
