------------------------------------------------------------
          Invoking FHI-aims ...

          When using FHI-aims, please cite the following reference:

            Volker Blum, Ralf Gehrke, Felix Hanke, Paula Havu,
            Ville Havu, Xinguo Ren, Karsten Reuter, and Matthias Scheffler,
            'Ab Initio Molecular Simulations with Numeric Atom-Centered Orbitals',
            Computer Physics Communications 180, 2175-2196 (2009)

          In addition, many other developments in FHI-aims are likely important for
          your particular application. If so, please cite them. A partial list of references
          is written at the end of this file. Thank you for giving credit to the authors
          of these developments.

          For general information about FHI-aims please find us at

            https://fhi-aims.org

          Online tutorials can be found at

            https://fhi-aims-club.gitlab.io/tutorials/tutorials-overview/

          For any questions about FHI-aims, please visit our slack channel at

            https://fhi-aims.slack.com

          and our main development and support site at

            https://aims-git.rz-berlin.mpg.de .

          The latter site, in particular, has a wiki to collect information, as well
          as an issue tracker to log discussions, suggest improvements, and report issues
          or bugs. https://aims-git.rz-berlin.mpg.de is also the main development site
          of the project and all new and updated code versions can be obtained there.
          Please send an email to aims-coordinators@fhi-berlin.mpg.de and we will add
          you to these sites. They are for you and everyone is welcome there.

------------------------------------------------------------



  Date     :  20240919, Time     :  162703.248
  Time zero on CPU 1             :   0.820281000000000E+00  s.
  Internal wall clock time zero  :           495995223.248  s.

  FHI-aims created a unique identifier for this run for later identification
  aims_uuid : B76B85D0-A3E2-402D-A28D-A07D0934CE00

  Build configuration of the current instance of FHI-aims
  -------------------------------------------------------
  FHI-aims version      : 240605
  Commit number         : b001b2e18
  CMake host system     : Linux-6.5.0-41-generic
  CMake version         : 3.22.1
  Fortran compiler      : /opt/intel/oneapi/mpi/2021.12/bin/mpiifort (IntelLLVM) version 2024.1.0
  Fortran compiler flags: -fc=ifx -O3 -ip -fp-model precise
  C compiler            : /opt/intel/oneapi/mpi/2021.12/bin/mpiicc (IntelLLVM) version 2024.1.0
  C compiler flags      : -cc=icx -O3 -ip -fp-model precise -std=gnu99
  C++ compiler          : /opt/intel/oneapi/mpi/2021.12/bin/mpiicpc (IntelLLVM) version 2024.1.0
  C++ compiler flags    : -cxx=icpx -O3 -ip -fp-model precise -std=c++11
  HIP compiler          :
  HIP compiler flags    :
  HIP GPU arch          :
  Using MPI
  Using ScaLAPACK
  Using LibXC
  Using i-PI
  Using RLSY
  Linking against: /opt/intel/oneapi/mkl/2024.1/lib/intel64/libmkl_intel_lp64.so
                   /opt/intel/oneapi/mkl/2024.1/lib/intel64/libmkl_sequential.so
                   /opt/intel/oneapi/mkl/2024.1/lib/intel64/libmkl_core.so
                   /opt/intel/oneapi/mkl/2024.1/lib/intel64/libmkl_blacs_intelmpi_lp64.so
                   /opt/intel/oneapi/mkl/2024.1/lib/intel64/libmkl_scalapack_lp64.so
                   /opt/intel/oneapi/mkl/2024.1/lib/intel64/libmkl_core.so

  Using      128 parallel tasks.
  Task        0 on host RSL-arvutus reporting.
  Task        1 on host RSL-arvutus reporting.
  Task        2 on host RSL-arvutus reporting.
  Task        3 on host RSL-arvutus reporting.
  Task        4 on host RSL-arvutus reporting.
  Task        5 on host RSL-arvutus reporting.
  Task        6 on host RSL-arvutus reporting.
  Task        7 on host RSL-arvutus reporting.
  Task        8 on host RSL-arvutus reporting.
  Task        9 on host RSL-arvutus reporting.
  Task       10 on host RSL-arvutus reporting.
  Task       11 on host RSL-arvutus reporting.
  Task       12 on host RSL-arvutus reporting.
  Task       13 on host RSL-arvutus reporting.
  Task       14 on host RSL-arvutus reporting.
  Task       15 on host RSL-arvutus reporting.
  Task       16 on host RSL-arvutus reporting.
  Task       17 on host RSL-arvutus reporting.
  Task       18 on host RSL-arvutus reporting.
  Task       19 on host RSL-arvutus reporting.
  Task       20 on host RSL-arvutus reporting.
  Task       21 on host RSL-arvutus reporting.
  Task       22 on host RSL-arvutus reporting.
  Task       23 on host RSL-arvutus reporting.
  Task       24 on host RSL-arvutus reporting.
  Task       25 on host RSL-arvutus reporting.
  Task       26 on host RSL-arvutus reporting.
  Task       27 on host RSL-arvutus reporting.
  Task       28 on host RSL-arvutus reporting.
  Task       29 on host RSL-arvutus reporting.
  Task       30 on host RSL-arvutus reporting.
  Task       31 on host RSL-arvutus reporting.
  Task       32 on host RSL-arvutus reporting.
  Task       33 on host RSL-arvutus reporting.
  Task       34 on host RSL-arvutus reporting.
  Task       35 on host RSL-arvutus reporting.
  Task       36 on host RSL-arvutus reporting.
  Task       37 on host RSL-arvutus reporting.
  Task       38 on host RSL-arvutus reporting.
  Task       39 on host RSL-arvutus reporting.
  Task       40 on host RSL-arvutus reporting.
  Task       41 on host RSL-arvutus reporting.
  Task       42 on host RSL-arvutus reporting.
  Task       43 on host RSL-arvutus reporting.
  Task       44 on host RSL-arvutus reporting.
  Task       45 on host RSL-arvutus reporting.
  Task       46 on host RSL-arvutus reporting.
  Task       47 on host RSL-arvutus reporting.
  Task       48 on host RSL-arvutus reporting.
  Task       49 on host RSL-arvutus reporting.
  Task       50 on host RSL-arvutus reporting.
  Task       51 on host RSL-arvutus reporting.
  Task       52 on host RSL-arvutus reporting.
  Task       53 on host RSL-arvutus reporting.
  Task       54 on host RSL-arvutus reporting.
  Task       55 on host RSL-arvutus reporting.
  Task       56 on host RSL-arvutus reporting.
  Task       57 on host RSL-arvutus reporting.
  Task       58 on host RSL-arvutus reporting.
  Task       59 on host RSL-arvutus reporting.
  Task       60 on host RSL-arvutus reporting.
  Task       61 on host RSL-arvutus reporting.
  Task       62 on host RSL-arvutus reporting.
  Task       63 on host RSL-arvutus reporting.
  Task       64 on host RSL-arvutus reporting.
  Task       65 on host RSL-arvutus reporting.
  Task       66 on host RSL-arvutus reporting.
  Task       67 on host RSL-arvutus reporting.
  Task       68 on host RSL-arvutus reporting.
  Task       69 on host RSL-arvutus reporting.
  Task       70 on host RSL-arvutus reporting.
  Task       71 on host RSL-arvutus reporting.
  Task       72 on host RSL-arvutus reporting.
  Task       73 on host RSL-arvutus reporting.
  Task       74 on host RSL-arvutus reporting.
  Task       75 on host RSL-arvutus reporting.
  Task       76 on host RSL-arvutus reporting.
  Task       77 on host RSL-arvutus reporting.
  Task       78 on host RSL-arvutus reporting.
  Task       79 on host RSL-arvutus reporting.
  Task       80 on host RSL-arvutus reporting.
  Task       81 on host RSL-arvutus reporting.
  Task       82 on host RSL-arvutus reporting.
  Task       83 on host RSL-arvutus reporting.
  Task       84 on host RSL-arvutus reporting.
  Task       85 on host RSL-arvutus reporting.
  Task       86 on host RSL-arvutus reporting.
  Task       87 on host RSL-arvutus reporting.
  Task       88 on host RSL-arvutus reporting.
  Task       89 on host RSL-arvutus reporting.
  Task       90 on host RSL-arvutus reporting.
  Task       91 on host RSL-arvutus reporting.
  Task       92 on host RSL-arvutus reporting.
  Task       93 on host RSL-arvutus reporting.
  Task       94 on host RSL-arvutus reporting.
  Task       95 on host RSL-arvutus reporting.
  Task       96 on host RSL-arvutus reporting.
  Task       97 on host RSL-arvutus reporting.
  Task       98 on host RSL-arvutus reporting.
  Task       99 on host RSL-arvutus reporting.
  Task      100 on host RSL-arvutus reporting.
  Task      101 on host RSL-arvutus reporting.
  Task      102 on host RSL-arvutus reporting.
  Task      103 on host RSL-arvutus reporting.
  Task      104 on host RSL-arvutus reporting.
  Task      105 on host RSL-arvutus reporting.
  Task      106 on host RSL-arvutus reporting.
  Task      107 on host RSL-arvutus reporting.
  Task      108 on host RSL-arvutus reporting.
  Task      109 on host RSL-arvutus reporting.
  Task      110 on host RSL-arvutus reporting.
  Task      111 on host RSL-arvutus reporting.
  Task      112 on host RSL-arvutus reporting.
  Task      113 on host RSL-arvutus reporting.
  Task      114 on host RSL-arvutus reporting.
  Task      115 on host RSL-arvutus reporting.
  Task      116 on host RSL-arvutus reporting.
  Task      117 on host RSL-arvutus reporting.
  Task      118 on host RSL-arvutus reporting.
  Task      119 on host RSL-arvutus reporting.
  Task      120 on host RSL-arvutus reporting.
  Task      121 on host RSL-arvutus reporting.
  Task      122 on host RSL-arvutus reporting.
  Task      123 on host RSL-arvutus reporting.
  Task      124 on host RSL-arvutus reporting.
  Task      125 on host RSL-arvutus reporting.
  Task      126 on host RSL-arvutus reporting.
  Task      127 on host RSL-arvutus reporting.

  Memory overcommitment is allowed on your operating system.

  Obtaining array dimensions for all initial allocations:
  
  -----------------------------------------------------------------------
  Parsing control.in (first pass over file, find array dimensions only).
  The contents of control.in will be repeated verbatim below
  unless switched off by setting 'verbatim_writeout .false.' .
  in the first line of control.in .
  -----------------------------------------------------------------------
  
    xc              pbe
    relativistic    atomic_zora scalar 1.0e-12
    KS_method	  serial
    k_grid          8 8 12
  
    spin		  collinear
    default_initial_moment	0.0
  
    output          Mulliken
    output_level	  full
  
  
  ################################################################################
  #
  #  FHI-aims code project
  #  VB, Fritz-Haber Institut, 2009
  #
  #  Suggested "light" defaults for Ti atom (to be pasted into control.in file)
  #  Be sure to double-check any results obtained with these settings for post-processing,
  #  e.g., with the "tight" defaults and larger basis sets.
  #
  ################################################################################
    species        Ti
  #     global species definitions
      nucleus             22
      mass                47.867
  #
      l_hartree           4
  #
      cut_pot             3.5          1.5  1.0
      basis_dep_cutoff    1e-4
  #
      radial_base         48 5.0
      radial_multiplier   1
      angular_grids       specified
        division   0.5171   50
        division   0.9824  110
        division   1.2917  194
        division   1.4940  302
  #      division   1.6934  434
  #      division   1.8425  590
  #      division   2.1901  770
  #      division   2.2896  974
  #      division   2.8244 1202
  #      outer_grid  974
        outer_grid  302
  ################################################################################
  #
  #  Definition of "minimal" basis
  #
  ################################################################################
  #     valence basis states
      valence      4  s   2.
      valence      3  p   6.
      valence      3  d   2.
  #     ion occupancy
      ion_occ      4  s   1.
      ion_occ      3  p   6.
      ion_occ      3  d   1.
  ################################################################################
  #
  #  Suggested additional basis functions. For production calculations,
  #  uncomment them one after another (the most important basis functions are
  #  listed first).
  #
  #  Constructed for dimers: 1.6 A, 1.85 A, 2.5 A, 3.25 A, 4.25 A
  #
  ################################################################################
  #  "First tier" - improvements: -396.25 meV to -19.41 meV
       hydro 4 f 8
       hydro 3 d 2.7
       ionic 4 p auto
  #     hydro 5 g 11.6
       ionic 4 s auto
  #  "Second tier" - improvements: -16.30 meV to -2.03 meV
  #     hydro 3 d 4.4
  #     hydro 6 h 16
  #     hydro 4 f 9.4
  #     hydro 4 p 4.5
  #     hydro 1 s 0.5
  #  "Third tier" - improvements: -6.28 meV to -0.37 meV
  #     hydro 4 d 6.4
  #     hydro 4 f 10
  #     hydro 5 g 12
  #     hydro 2 p 1.7
  #     hydro 6 h 16.4
  #     hydro 4 s 3.8
  #  Further basis functions: -0.45 meV and smaller improvements
  #     hydro 3 d 8.8
  #     hydro 5 p 18
  #     hydro 4 f 22.4
  #     hydro 5 f 7.2  # -0.16 meV
  #     hydro 3 d 2.1  # -0.11 meV
  #     hydro 5 g 7.4  # -0.09 meV
  
  
  ################################################################################
  #
  #  FHI-aims code project
  #  VB, Fritz-Haber Institut, 2009
  #
  #  Suggested "light" defaults for O atom (to be pasted into control.in file)
  #  Be sure to double-check any results obtained with these settings for post-processing,
  #  e.g., with the "tight" defaults and larger basis sets.
  #
  ################################################################################
    species        O
  #     global species definitions
      nucleus             8
      mass                15.9994
  #
      l_hartree           4
  #
      cut_pot             3.5  1.5  1.0
      basis_dep_cutoff    1e-4
  #
      radial_base         36 5.0
      radial_multiplier   1
       angular_grids specified
        division   0.2659   50
        division   0.4451  110
        division   0.6052  194
        division   0.7543  302
  #      division   0.8014  434
  #      division   0.8507  590
  #      division   0.8762  770
  #      division   0.9023  974
  #      division   1.2339 1202
  #      outer_grid 974
        outer_grid 302
  ################################################################################
  #
  #  Definition of "minimal" basis
  #
  ################################################################################
  #     valence basis states
      valence      2  s   2.
      valence      2  p   4.
  #     ion occupancy
      ion_occ      2  s   1.
      ion_occ      2  p   3.
  ################################################################################
  #
  #  Suggested additional basis functions. For production calculations,
  #  uncomment them one after another (the most important basis functions are
  #  listed first).
  #
  #  Constructed for dimers: 1.0 A, 1.208 A, 1.5 A, 2.0 A, 3.0 A
  #
  ################################################################################
  #  "First tier" - improvements: -699.05 meV to -159.38 meV
       hydro 2 p 1.8
       hydro 3 d 7.6
       hydro 3 s 6.4
  #  "Second tier" - improvements: -49.91 meV to -5.39 meV
  #     hydro 4 f 11.6
  #     hydro 3 p 6.2
  #     hydro 3 d 5.6
  #     hydro 5 g 17.6
  #     hydro 1 s 0.75
  #  "Third tier" - improvements: -2.83 meV to -0.50 meV
  #     ionic 2 p auto
  #     hydro 4 f 10.8
  #     hydro 4 d 4.7
  #     hydro 2 s 6.8
  #  "Fourth tier" - improvements: -0.40 meV to -0.12 meV
  #     hydro 3 p 5
  #     hydro 3 s 3.3
  #     hydro 5 g 15.6
  #     hydro 4 f 17.6
  #     hydro 4 d 14
  # Further basis functions - -0.08 meV and below
  #     hydro 3 s 2.1
  #     hydro 4 d 11.6
  #     hydro 3 p 16
  #     hydro 2 s 17.2
  
  ################################################################################
  #
  #  "Core" basis functions and numerical settings for O atom.
  #  Based on “tight” defaults (V. Blum, 2009).
  #
  ################################################################################
    species        O1
  #     global species definitions
      nucleus             8.
      mass                15.9994
  #
      l_hartree           6
  #
      cut_pot             4.0  2.0  1.0
      basis_dep_cutoff    1e-4
  #
      radial_base         36 7.0
      radial_multiplier   2
       angular_grids specified
        division   0.1817   50
        division   0.3417  110
        division   0.4949  194
        division   0.6251  302
        division   0.8014  434
  #      division   0.8507  590
  #      division   0.8762  770
  #      division   0.9023  974
  #      division   1.2339 1202
  #      outer_grid 974
        outer_grid  434
  ################################################################################
  #
  #  Definition of "minimal" basis
  #
  ################################################################################
  #     valence basis states
      valence      2  s   2.
      valence      2  p   4.
  #     ion occupancy
      ion_occ      2  s   1.
      ion_occ      2  p   3.
  ################################################################################
  #
  #  Suggested additional basis functions. For production calculations,
  #  uncomment them one after another (the most important basis functions are
  #  listed first).
  #
  #  Constructed for dimers: 1.0 A, 1.208 A, 1.5 A, 2.0 A, 3.0 A
  #
  ################################################################################
  #  "First tier" - improvements: -699.05 meV to -159.38 meV
       hydro 2 p 1.8
       hydro 3 d 7.6
       hydro 3 s 6.4
  #  "Second tier" - improvements: -49.91 meV to -5.39 meV
       hydro 4 f 11.6
       hydro 3 p 6.2
       hydro 3 d 5.6
       hydro 5 g 17.6
       hydro 1 s 0.75
  #  "Third tier" - improvements: -2.83 meV to -0.50 meV
       ionic 2 p auto
       hydro 4 f 10.8
       hydro 4 d 4.7
       hydro 2 s 6.8
  #  "Fourth tier" - improvements: -0.40 meV to -0.12 meV
  #     hydro 3 p 5
  #     hydro 3 s 3.3
  #     hydro 5 g 15.6
  #     hydro 4 f 17.6
  #     hydro 4 d 14
  # Further basis functions - -0.08 meV and below
  #     hydro 3 s 2.1
  #     hydro 4 d 11.6
  #     hydro 3 p 16
  #     hydro 2 s 17.2
  
  # Additional basis functions for atom with a core hole
       hydro 1 s 12.0
       hydro 1 s 10.0
       hydro 1 s 6.0
       hydro 2 s 10.0
       hydro 2 p 8.0
       hydro 2 p 6.0
       hydro 3 d 8.0
  
  -----------------------------------------------------------------------
  Completed first pass over input file control.in .
  -----------------------------------------------------------------------
  
  
  -----------------------------------------------------------------------
  Parsing geometry.in (first pass over file, find array dimensions only).
  The contents of geometry.in will be repeated verbatim below
  unless switched off by setting 'verbatim_writeout .false.' .
  in the first line of geometry.in .
  -----------------------------------------------------------------------
  
  #
  # This is the geometry file that corresponds to the current relaxation step.
  # If you do not want this file to be written, set the "write_restart_geometry" flag to .false.
  #  aims_uuid : 704D9F80-A97A-4D94-A235-1E89D88A13DD
  #
  lattice_vector      4.64306176      0.00012152     -0.00000000
  lattice_vector      0.00012172      4.64308665      0.00000000
  lattice_vector     -0.00000000      0.00000000      2.97288267
  atom_frac      -0.00000001      0.00000001     -0.00000000 Ti
  atom_frac       0.50000000      0.50000000      0.50000000 Ti
  atom_frac       0.30555823      0.30556717      0.00000000 O1
  atom_frac       0.69444177      0.69443283      0.00000000 O
  atom_frac       0.19444622      0.80556274      0.50000000 O
  atom_frac       0.80555378      0.19443725      0.50000000 O
  #
  # What follows is the current estimated Hessian matrix constructed by the BFGS algorithm.
  # This is NOT the true Hessian matrix of the system.
  # If you do not want this information here, switch it off using the "hessian_to_restart_geometry" keyword.
  #
  trust_radius             0.8000000119
  hessian_file
  
  -----------------------------------------------------------------------
  Completed first pass over input file geometry.in .
  -----------------------------------------------------------------------
  

  Basic array size parameters:
  | Number of species                 :        3
  | Number of atoms                   :        6
  | Number of lattice vectors         :        3
  | Max. basis fn. angular momentum   :        4
  | Max. atomic/ionic basis occupied n:        4
  | Max. number of basis fn. types    :        3
  | Max. radial fns per species/type  :       18
  | Max. logarithmic grid size        :     1383
  | Max. radial integration grid size :       73
  | Max. angular integration grid size:      434
  | Max. angular grid division number :        8
  | Radial grid for Hartree potential :     1383
  | Number of spin channels           :        2

------------------------------------------------------------
          Reading file control.in.
------------------------------------------------------------
  XC: Using PBE gradient-corrected functionals.
  Scalar relativistic treatment of kinetic energy: on-site free-atom approximation to ZORA.
  Kohn-Sham eigenvalues and eigenfunctions calculated by LAPACK via ELSI.
  Found k-point grid:         8         8        12
  Spin treatment: Spin density functional theory - collinear spins.
  Initial spin moment per atom:   0.0000
  Mulliken charge analysis will be performed and summarised to the main output.
  Full Mulliken charge analysis will be written to file 'Mulliken.out'.
  Requested output level: full
 
  Reading configuration options for species Ti                  .
  | Found nuclear charge :  22.0000
  | Found atomic mass :    47.8670000000000      amu
  | Found l_max for Hartree potential  :   4
  | Found cutoff potl. onset [A], width [A], scale factor :    3.50000    1.50000    1.00000
  | Threshold for basis-dependent cutoff potential is   0.100000E-03
  | Found data for basic radial integration grid :    48 points, outermost radius =    5.000 A
  | Found multiplier for basic radial grid :   1
  | Found angular grid specification: user-specified.
  | Specified grid contains     5 separate shells.
  | Check grid settings after all constraints further below.
  | Found free-atom valence shell :  4 s   2.000
  | Found free-atom valence shell :  3 p   6.000
  | Found free-atom valence shell :  3 d   2.000
  | Found free-ion valence shell :  4 s   1.000
  | Found free-ion valence shell :  3 p   6.000
  | Found free-ion valence shell :  3 d   1.000
  | Found hydrogenic basis function :  4 f   8.000
  | Found hydrogenic basis function :  3 d   2.700
  | Found ionic basis function :  4 p , default cutoff radius.
  | Found ionic basis function :  4 s , default cutoff radius.
 | Encountered keyword species, ending the description of species Ti                  .
  Species Ti                  : Missing cutoff potential type.
  Defaulting to exp(1/x)/(1-x)^2 type cutoff potential.
  Species Ti: No 'logarithmic' tag. Using default grid for free atom:
  | Default logarithmic grid data [bohr] : 0.1000E-03 0.1000E+03 0.1012E+01
  | Will include ionic basis functions of  2.0-fold positive Ti                   ion.
  Species Ti: On-site basis accuracy parameter (for Gram-Schmidt orthonormalisation) not specified.
  Using default value basis_acc =  0.1000000E-03.
  Species Ti                  : Using default innermost maximum threshold i_radial=  2 for radial functions.
  Species Ti                  : Default cutoff onset for free atom density etc. : 0.35000000E+01 AA.
  Species Ti                  : Basic radial grid will be enhanced according to radial_multiplier =   1, to contain    48 grid points.
 
  Reading configuration options for species O                   .
  | Found nuclear charge :   8.0000
  | Found atomic mass :    15.9994000000000      amu
  | Found l_max for Hartree potential  :   4
  | Found cutoff potl. onset [A], width [A], scale factor :    3.50000    1.50000    1.00000
  | Threshold for basis-dependent cutoff potential is   0.100000E-03
  | Found data for basic radial integration grid :    36 points, outermost radius =    5.000 A
  | Found multiplier for basic radial grid :   1
  | Found angular grid specification: user-specified.
  | Specified grid contains     5 separate shells.
  | Check grid settings after all constraints further below.
  | Found free-atom valence shell :  2 s   2.000
  | Found free-atom valence shell :  2 p   4.000
  | Found free-ion valence shell :  2 s   1.000
  | Found free-ion valence shell :  2 p   3.000
  | Found hydrogenic basis function :  2 p   1.800
  | Found hydrogenic basis function :  3 d   7.600
  | Found hydrogenic basis function :  3 s   6.400
 | Encountered keyword species, ending the description of species O                   .
  Species O                   : Missing cutoff potential type.
  Defaulting to exp(1/x)/(1-x)^2 type cutoff potential.
  Species O : No 'logarithmic' tag. Using default grid for free atom:
  | Default logarithmic grid data [bohr] : 0.1000E-03 0.1000E+03 0.1012E+01
  Species O : On-site basis accuracy parameter (for Gram-Schmidt orthonormalisation) not specified.
  Using default value basis_acc =  0.1000000E-03.
  Species O                   : Using default innermost maximum threshold i_radial=  2 for radial functions.
  Species O                   : Default cutoff onset for free atom density etc. : 0.35000000E+01 AA.
  Species O                   : Basic radial grid will be enhanced according to radial_multiplier =   1, to contain    36 grid points.
 
  Reading configuration options for species O1                  .
  | Found nuclear charge :   8.0000
  | Found atomic mass :    15.9994000000000      amu
  | Found l_max for Hartree potential  :   6
  | Found cutoff potl. onset [A], width [A], scale factor :    4.00000    2.00000    1.00000
  | Threshold for basis-dependent cutoff potential is   0.100000E-03
  | Found data for basic radial integration grid :    36 points, outermost radius =    7.000 A
  | Found multiplier for basic radial grid :   2
  | Found angular grid specification: user-specified.
  | Specified grid contains     6 separate shells.
  | Check grid settings after all constraints further below.
  | Found free-atom valence shell :  2 s   2.000
  | Found free-atom valence shell :  2 p   4.000
  | Found free-ion valence shell :  2 s   1.000
  | Found free-ion valence shell :  2 p   3.000
  | Found hydrogenic basis function :  2 p   1.800
  | Found hydrogenic basis function :  3 d   7.600
  | Found hydrogenic basis function :  3 s   6.400
  | Found hydrogenic basis function :  4 f  11.600
  | Found hydrogenic basis function :  3 p   6.200
  | Found hydrogenic basis function :  3 d   5.600
  | Found hydrogenic basis function :  5 g  17.600
  | Found hydrogenic basis function :  1 s   0.750
  | Found ionic basis function :  2 p , default cutoff radius.
  | Found hydrogenic basis function :  4 f  10.800
  | Found hydrogenic basis function :  4 d   4.700
  | Found hydrogenic basis function :  2 s   6.800
  | Found hydrogenic basis function :  1 s  12.000
  | Found hydrogenic basis function :  1 s  10.000
  | Found hydrogenic basis function :  1 s   6.000
  | Found hydrogenic basis function :  2 s  10.000
  | Found hydrogenic basis function :  2 p   8.000
  | Found hydrogenic basis function :  2 p   6.000
  | Found hydrogenic basis function :  3 d   8.000
  Species O1                  : Missing cutoff potential type.
  Defaulting to exp(1/x)/(1-x)^2 type cutoff potential.
  Species O1: No 'logarithmic' tag. Using default grid for free atom:
  | Default logarithmic grid data [bohr] : 0.1000E-03 0.1000E+03 0.1012E+01
  | Will include ionic basis functions of  2.0-fold positive O1                   ion.
  Species O1: On-site basis accuracy parameter (for Gram-Schmidt orthonormalisation) not specified.
  Using default value basis_acc =  0.1000000E-03.
  Species O1                  : Using default innermost maximum threshold i_radial=  2 for radial functions.
  Species O1                  : Default cutoff onset for free atom density etc. : 0.40000000E+01 AA.
  Species O1                  : Basic radial grid will be enhanced according to radial_multiplier =   2, to contain    73 grid points.
 
  Finished reading input file 'control.in'.
 
------------------------------------------------------------


------------------------------------------------------------
          Reading geometry description geometry.in.
------------------------------------------------------------
 * Large trust radius value found - resetting to the current value of max_atomic_move,      0.20000000 A.
  Found keyword 'hessian_file', indicating that this is the continuation of a structure optimization.
  However, the control.in file does not request the geometry to be optimized.
  Ignoring the request for a file 'hessian.aims' to be present.
  | The smallest distance between any two atoms is         1.95947562 AA.
  | The first atom of this pair is atom number                      1 .
  | The second atom of this pair is atom number                     6 .
  | Wigner-Seitz cell of the first atom image           0     0     0 .
  | (The Wigner-Seitz cell of the second atom is 0 0 0  by definition.)

  Symmetry information by spglib:
  | Precision set to  0.1E-04
  | Number of Operations  : 2
  | Space group           : 6
  | International         : Pm      Q
  | Schoenflies           : Cs^1
  Input structure read successfully.
  The structure contains        6 atoms,  and a total of         76.000 electrons.

  Input geometry:
  | Unit cell:
  |        4.64306176        0.00012152        0.00000000
  |        0.00012172        4.64308665        0.00000000
  |        0.00000000        0.00000000        2.97288267
  | Atomic structure:
  |       Atom                x [A]            y [A]            z [A]
  |    1: Species Ti           -0.00000005        0.00000005        0.00000000
  |    2: Species Ti            2.32159174        2.32160409        1.48644134
  |    3: Species O1            1.41876293        1.41881198        0.00000000
  |    4: Species O             3.22442055        3.22439619        0.00000000
  |    5: Species O             0.90292386        3.74032123        1.48644134
  |    6: Species O             3.74025962        0.90288689        1.48644134

  Lattice parameters for 3D lattice (in Angstroms) :     4.643062    4.643087    2.972883
  Angle(s) between unit vectors (in degrees)       :    90.000000   90.000000   89.996998


  Quantities derived from the lattice vectors (in Angstrom^-1):
  | Reciprocal lattice vector 1:  1.353242 -0.000035  0.000000
  | Reciprocal lattice vector 2: -0.000035  1.353235  0.000000
  | Reciprocal lattice vector 3:  0.000000  0.000000  2.113499
  | Unit cell volume                               :   0.640898E+02  Angstrom^3

  Fractional coordinates:
                         L1                L2                L3
       atom_frac        -0.00000001        0.00000001        0.00000000  Ti
       atom_frac         0.50000000        0.50000000        0.50000000  Ti
       atom_frac         0.30555823        0.30556717        0.00000000  O1
       atom_frac         0.69444177        0.69443283        0.00000000  O
       atom_frac         0.19444622        0.80556274        0.50000000  O
       atom_frac         0.80555378        0.19443725        0.50000000  O

  Initial moments and charges:
  |  Atom   Moment         Charge        Species
  |     1   0.000000E+00   0.000000E+00   Ti
  |     2   0.000000E+00   0.000000E+00   Ti
  |     3   0.000000E+00   0.000000E+00   O1
  |     4   0.000000E+00   0.000000E+00   O
  |     5   0.000000E+00   0.000000E+00   O
  |     6   0.000000E+00   0.000000E+00   O

  Slab Identifier: This seems to be a bulk system.
 
  Finished reading input file 'geometry.in'.
 

 
  Consistency checks for stacksize environment parameter are next.
 
  | Maximum stacksize for task 0: unlimited
  | Maximum stacksize for task 1: unlimited
  | Maximum stacksize for task 2: unlimited
  | Maximum stacksize for task 3: unlimited
  | Maximum stacksize for task 4: unlimited
  | Maximum stacksize for task 5: unlimited
  | Maximum stacksize for task 6: unlimited
  | Maximum stacksize for task 7: unlimited
  | Maximum stacksize for task 8: unlimited
  | Maximum stacksize for task 9: unlimited
  | Maximum stacksize for task 10: unlimited
  | Maximum stacksize for task 11: unlimited
  | Maximum stacksize for task 12: unlimited
  | Maximum stacksize for task 13: unlimited
  | Maximum stacksize for task 14: unlimited
  | Maximum stacksize for task 15: unlimited
  | Maximum stacksize for task 16: unlimited
  | Maximum stacksize for task 17: unlimited
  | Maximum stacksize for task 18: unlimited
  | Maximum stacksize for task 19: unlimited
  | Maximum stacksize for task 20: unlimited
  | Maximum stacksize for task 21: unlimited
  | Maximum stacksize for task 22: unlimited
  | Maximum stacksize for task 23: unlimited
  | Maximum stacksize for task 24: unlimited
  | Maximum stacksize for task 25: unlimited
  | Maximum stacksize for task 26: unlimited
  | Maximum stacksize for task 27: unlimited
  | Maximum stacksize for task 28: unlimited
  | Maximum stacksize for task 29: unlimited
  | Maximum stacksize for task 30: unlimited
  | Maximum stacksize for task 31: unlimited
  | Maximum stacksize for task 32: unlimited
  | Maximum stacksize for task 33: unlimited
  | Maximum stacksize for task 34: unlimited
  | Maximum stacksize for task 35: unlimited
  | Maximum stacksize for task 36: unlimited
  | Maximum stacksize for task 37: unlimited
  | Maximum stacksize for task 38: unlimited
  | Maximum stacksize for task 39: unlimited
  | Maximum stacksize for task 40: unlimited
  | Maximum stacksize for task 41: unlimited
  | Maximum stacksize for task 42: unlimited
  | Maximum stacksize for task 43: unlimited
  | Maximum stacksize for task 44: unlimited
  | Maximum stacksize for task 45: unlimited
  | Maximum stacksize for task 46: unlimited
  | Maximum stacksize for task 47: unlimited
  | Maximum stacksize for task 48: unlimited
  | Maximum stacksize for task 49: unlimited
  | Maximum stacksize for task 50: unlimited
  | Maximum stacksize for task 51: unlimited
  | Maximum stacksize for task 52: unlimited
  | Maximum stacksize for task 53: unlimited
  | Maximum stacksize for task 54: unlimited
  | Maximum stacksize for task 55: unlimited
  | Maximum stacksize for task 56: unlimited
  | Maximum stacksize for task 57: unlimited
  | Maximum stacksize for task 58: unlimited
  | Maximum stacksize for task 59: unlimited
  | Maximum stacksize for task 60: unlimited
  | Maximum stacksize for task 61: unlimited
  | Maximum stacksize for task 62: unlimited
  | Maximum stacksize for task 63: unlimited
  | Maximum stacksize for task 64: unlimited
  | Maximum stacksize for task 65: unlimited
  | Maximum stacksize for task 66: unlimited
  | Maximum stacksize for task 67: unlimited
  | Maximum stacksize for task 68: unlimited
  | Maximum stacksize for task 69: unlimited
  | Maximum stacksize for task 70: unlimited
  | Maximum stacksize for task 71: unlimited
  | Maximum stacksize for task 72: unlimited
  | Maximum stacksize for task 73: unlimited
  | Maximum stacksize for task 74: unlimited
  | Maximum stacksize for task 75: unlimited
  | Maximum stacksize for task 76: unlimited
  | Maximum stacksize for task 77: unlimited
  | Maximum stacksize for task 78: unlimited
  | Maximum stacksize for task 79: unlimited
  | Maximum stacksize for task 80: unlimited
  | Maximum stacksize for task 81: unlimited
  | Maximum stacksize for task 82: unlimited
  | Maximum stacksize for task 83: unlimited
  | Maximum stacksize for task 84: unlimited
  | Maximum stacksize for task 85: unlimited
  | Maximum stacksize for task 86: unlimited
  | Maximum stacksize for task 87: unlimited
  | Maximum stacksize for task 88: unlimited
  | Maximum stacksize for task 89: unlimited
  | Maximum stacksize for task 90: unlimited
  | Maximum stacksize for task 91: unlimited
  | Maximum stacksize for task 92: unlimited
  | Maximum stacksize for task 93: unlimited
  | Maximum stacksize for task 94: unlimited
  | Maximum stacksize for task 95: unlimited
  | Maximum stacksize for task 96: unlimited
  | Maximum stacksize for task 97: unlimited
  | Maximum stacksize for task 98: unlimited
  | Maximum stacksize for task 99: unlimited
  | Maximum stacksize for task 100: unlimited
  | Maximum stacksize for task 101: unlimited
  | Maximum stacksize for task 102: unlimited
  | Maximum stacksize for task 103: unlimited
  | Maximum stacksize for task 104: unlimited
  | Maximum stacksize for task 105: unlimited
  | Maximum stacksize for task 106: unlimited
  | Maximum stacksize for task 107: unlimited
  | Maximum stacksize for task 108: unlimited
  | Maximum stacksize for task 109: unlimited
  | Maximum stacksize for task 110: unlimited
  | Maximum stacksize for task 111: unlimited
  | Maximum stacksize for task 112: unlimited
  | Maximum stacksize for task 113: unlimited
  | Maximum stacksize for task 114: unlimited
  | Maximum stacksize for task 115: unlimited
  | Maximum stacksize for task 116: unlimited
  | Maximum stacksize for task 117: unlimited
  | Maximum stacksize for task 118: unlimited
  | Maximum stacksize for task 119: unlimited
  | Maximum stacksize for task 120: unlimited
  | Maximum stacksize for task 121: unlimited
  | Maximum stacksize for task 122: unlimited
  | Maximum stacksize for task 123: unlimited
  | Maximum stacksize for task 124: unlimited
  | Maximum stacksize for task 125: unlimited
  | Maximum stacksize for task 126: unlimited
  | Maximum stacksize for task 127: unlimited
  | Current stacksize for task 0: unlimited
  | Current stacksize for task 1: unlimited
  | Current stacksize for task 2: unlimited
  | Current stacksize for task 3: unlimited
  | Current stacksize for task 4: unlimited
  | Current stacksize for task 5: unlimited
  | Current stacksize for task 6: unlimited
  | Current stacksize for task 7: unlimited
  | Current stacksize for task 8: unlimited
  | Current stacksize for task 9: unlimited
  | Current stacksize for task 10: unlimited
  | Current stacksize for task 11: unlimited
  | Current stacksize for task 12: unlimited
  | Current stacksize for task 13: unlimited
  | Current stacksize for task 14: unlimited
  | Current stacksize for task 15: unlimited
  | Current stacksize for task 16: unlimited
  | Current stacksize for task 17: unlimited
  | Current stacksize for task 18: unlimited
  | Current stacksize for task 19: unlimited
  | Current stacksize for task 20: unlimited
  | Current stacksize for task 21: unlimited
  | Current stacksize for task 22: unlimited
  | Current stacksize for task 23: unlimited
  | Current stacksize for task 24: unlimited
  | Current stacksize for task 25: unlimited
  | Current stacksize for task 26: unlimited
  | Current stacksize for task 27: unlimited
  | Current stacksize for task 28: unlimited
  | Current stacksize for task 29: unlimited
  | Current stacksize for task 30: unlimited
  | Current stacksize for task 31: unlimited
  | Current stacksize for task 32: unlimited
  | Current stacksize for task 33: unlimited
  | Current stacksize for task 34: unlimited
  | Current stacksize for task 35: unlimited
  | Current stacksize for task 36: unlimited
  | Current stacksize for task 37: unlimited
  | Current stacksize for task 38: unlimited
  | Current stacksize for task 39: unlimited
  | Current stacksize for task 40: unlimited
  | Current stacksize for task 41: unlimited
  | Current stacksize for task 42: unlimited
  | Current stacksize for task 43: unlimited
  | Current stacksize for task 44: unlimited
  | Current stacksize for task 45: unlimited
  | Current stacksize for task 46: unlimited
  | Current stacksize for task 47: unlimited
  | Current stacksize for task 48: unlimited
  | Current stacksize for task 49: unlimited
  | Current stacksize for task 50: unlimited
  | Current stacksize for task 51: unlimited
  | Current stacksize for task 52: unlimited
  | Current stacksize for task 53: unlimited
  | Current stacksize for task 54: unlimited
  | Current stacksize for task 55: unlimited
  | Current stacksize for task 56: unlimited
  | Current stacksize for task 57: unlimited
  | Current stacksize for task 58: unlimited
  | Current stacksize for task 59: unlimited
  | Current stacksize for task 60: unlimited
  | Current stacksize for task 61: unlimited
  | Current stacksize for task 62: unlimited
  | Current stacksize for task 63: unlimited
  | Current stacksize for task 64: unlimited
  | Current stacksize for task 65: unlimited
  | Current stacksize for task 66: unlimited
  | Current stacksize for task 67: unlimited
  | Current stacksize for task 68: unlimited
  | Current stacksize for task 69: unlimited
  | Current stacksize for task 70: unlimited
  | Current stacksize for task 71: unlimited
  | Current stacksize for task 72: unlimited
  | Current stacksize for task 73: unlimited
  | Current stacksize for task 74: unlimited
  | Current stacksize for task 75: unlimited
  | Current stacksize for task 76: unlimited
  | Current stacksize for task 77: unlimited
  | Current stacksize for task 78: unlimited
  | Current stacksize for task 79: unlimited
  | Current stacksize for task 80: unlimited
  | Current stacksize for task 81: unlimited
  | Current stacksize for task 82: unlimited
  | Current stacksize for task 83: unlimited
  | Current stacksize for task 84: unlimited
  | Current stacksize for task 85: unlimited
  | Current stacksize for task 86: unlimited
  | Current stacksize for task 87: unlimited
  | Current stacksize for task 88: unlimited
  | Current stacksize for task 89: unlimited
  | Current stacksize for task 90: unlimited
  | Current stacksize for task 91: unlimited
  | Current stacksize for task 92: unlimited
  | Current stacksize for task 93: unlimited
  | Current stacksize for task 94: unlimited
  | Current stacksize for task 95: unlimited
  | Current stacksize for task 96: unlimited
  | Current stacksize for task 97: unlimited
  | Current stacksize for task 98: unlimited
  | Current stacksize for task 99: unlimited
  | Current stacksize for task 100: unlimited
  | Current stacksize for task 101: unlimited
  | Current stacksize for task 102: unlimited
  | Current stacksize for task 103: unlimited
  | Current stacksize for task 104: unlimited
  | Current stacksize for task 105: unlimited
  | Current stacksize for task 106: unlimited
  | Current stacksize for task 107: unlimited
  | Current stacksize for task 108: unlimited
  | Current stacksize for task 109: unlimited
  | Current stacksize for task 110: unlimited
  | Current stacksize for task 111: unlimited
  | Current stacksize for task 112: unlimited
  | Current stacksize for task 113: unlimited
  | Current stacksize for task 114: unlimited
  | Current stacksize for task 115: unlimited
  | Current stacksize for task 116: unlimited
  | Current stacksize for task 117: unlimited
  | Current stacksize for task 118: unlimited
  | Current stacksize for task 119: unlimited
  | Current stacksize for task 120: unlimited
  | Current stacksize for task 121: unlimited
  | Current stacksize for task 122: unlimited
  | Current stacksize for task 123: unlimited
  | Current stacksize for task 124: unlimited
  | Current stacksize for task 125: unlimited
  | Current stacksize for task 126: unlimited
  | Current stacksize for task 127: unlimited
 
  Consistency checks for the contents of control.in are next.
 
  MPI_IN_PLACE appears to work with this MPI implementation.
  | Keeping use_mpi_in_place .true. (see manual).
  Target number of points in a grid batch is not set. Defaulting to  100
  Method for grid partitioning is not set. Defaulting to parallel hash+maxmin partitioning.
  Batch size limit is not set. Defaulting to    200
  By default, will store active basis functions for each batch.
  If in need of memory, prune_basis_once .false. can be used to disable this option.
  communication_type for Hartree potential was not specified.
  Defaulting to calc_hartree .
  Defaulting to Pulay charge density mixer.
  Pulay mixer: Number of relevant iterations not set.
  Defaulting to    8 iterations.
  Pulay mixer: Number of initial linear mixing iterations not set.
  Defaulting to    0 iterations.
  Work space size for distributed Hartree potential not set.
  Defaulting to   0.200000E+03 MB.
  Mixing parameter for charge density mixing has not been set.
  Using default: charge_mix_param =     0.0500.
  The mixing parameter will be adjusted in iteration number     2 of each s.c.f. cycle (i.e., each geometry step).
  Mixing parameter for spin density mixing has not been set.
  Using charge_mix_param as default:     0.0500.
  Algorithm-dependent basis array size parameters:
  | n_max_pulay                         :        8
  Maximum number of self-consistency iterations not provided.
  Presetting  1000 iterations.
  Presetting      1001 iterations before the initial mixing cycle
  is restarted anyway using the sc_init_iter criterion / keyword.
  Presetting a factor      1.000 between actual scf density residual
  and density convergence criterion sc_accuracy_rho below which sc_init_iter
  takes no effect.
 * No s.c.f. convergence criteria (sc_accuracy_*) were provided in control.in.
 * The run will proceed with a reasonable default guess, but please check whether.
 * the s.c.f. cycles seem to take too much or too little time.
  Calculation of forces was not defined in control.in. No forces will be calculated.
  Geometry relaxation not requested: no relaxation will be performed.
 * Notice: The s.c.f. convergence criterion sc_accuracy_rho was not provided.
 * We used to stop in this case, and ask the user to provide reasonable
 * scf convergence criteria. However, this led some users to employ criteria
 * that led to extremely long run times, e.g., for simple relaxation.
 * We now preset a default value for sc_accuracy_rho if it is not set.
 * You may still wish to check if this setting is too tight or too loose for your needs.
 * Based on n_atoms and forces and force-correction status, FHI-aims chose sc_accuracy_rho =  0.100000E-05 .
  No accuracy limit for integral partition fn. given. Defaulting to  0.1000E-14.
  No threshold value for u(r) in integrations given. Defaulting to  0.1000E-05.
  No occupation type (smearing scheme) given. Defaulting to Gaussian broadening, width =  0.1000E-01 eV.
  The width will be adjusted in iteration number     2 of each s.c.f. cycle (i.e., each geometry step).
  No accuracy for occupation numbers given. Defaulting to  0.1000E-12.
  No threshold value for occupation numbers given. Defaulting to  0.0000E+00.
  No accuracy for fermi level given. Defaulting to  0.1000E-19.
  Maximum # of iterations to find E_F not set. Defaulting to  200.
  Will not use alltoall communication since running on < 1024 CPUs.
  Threshold for basis singularities not set.
  Default threshold for basis singularities:  0.1000E-04
  partition_type (choice of integration weights) for integrals was not specified.
  | Using a version of the partition function of Stratmann and coworkers ('stratmann_sparse').
  | At each grid point, the set of atoms used to build the partition table is smoothly restricted to
  | only those atoms whose free-atom density would be non-zero at that grid point.
  Partitioning for Hartree potential was not defined. Using partition_type for integrals.
  | Adjusted default value of keyword multip_moments_threshold to:       0.10000000E-11
  | This value may affect high angular momentum components of the Hartree potential in periodic systems.
  No q(lm)/r^(l+1) cutoff set for long-range Hartree potential.
  | Using default value of  0.100000E-09 .
  | Verify using the multipole_threshold keyword.
  Defaulting to new monopole extrapolation.
  Density update method: automatic selection selected.
  Using density matrix based charge density update.
  Using density matrix based charge density update.
  Using packed matrix style: index .
  Defaulting to use time-reversal symmetry for k-point grid.
  Charge integration errors on the 3D integration grid will be compensated
  by explicit normalization and distribution of residual charges.
  Use the "compensate_multipole_errors" flag to change this behaviour.
  Set 'collect_eigenvectors' to be '.true.' for all serial calculations. This is mandatory.
  Set 'collect_eigenvectors' to be '.true.' for KS_method lapack_fast and serial.
  Found potential conflicts with setting 'use_local_index' for this calculation. Will not set it.
 
  Consistency checks for the contents of geometry.in are next.
 

  Range separation radius for Ewald summation (hartree_convergence_parameter):      3.05697894 bohr.
  Number of empty states per atom not set in control.in - providing a guess from actual geometry.
  | Total number of empty states used during s.c.f. cycle:       23
  If you use a very high smearing, use empty_states (per atom!) in control.in to increase this value.

  Structure-dependent array size parameters: 
  | Number of distinct atom types in initial rho :        3
  | Maximum number of distinct radial functions  :       39
  | Maximum number of basis functions            :      174
  | Number of Kohn-Sham states (occupied + empty):       61
------------------------------------------------------------
  After read_input_data [GB]:   1039.47

  Performing system and environment tests:
  *** Environment variable OMP_NUM_THREADS is not set
  *** For performance reasons you might want to set it to 1
  | Checking for ScaLAPACK...
  | Testing pdtran()...
  | All pdtran() tests passed.
  After prepare_system [GB]:   1039.14

------------------------------------------------------------
          Preparing all fixed parts of the calculation.
------------------------------------------------------------
  Determining machine precision:
    2.225073858507201E-308
  Setting up grids for atomic and cluster calculations.

  Creating wave function, potential, and density for free atoms.
  Runtime choices for atomic solver:
  | atomic solver xc        : PBE
  | compute density gradient: 1
  | compute kinetic density : F

  Species: Ti

  List of occupied orbitals and eigenvalues:
    n    l              occ      energy [Ha]    energy [eV]
    1    0           2.0000      -179.959082     -4896.9358
    2    0           2.0000       -19.727662      -536.8170
    3    0           2.0000        -2.283029       -62.1244
    4    0           2.0000        -0.148384        -4.0377
    2    1           6.0000       -16.317278      -444.0157
    3    1           6.0000        -1.409348       -38.3503
    3    2           2.0000        -0.139340        -3.7916


  Species: O

  List of occupied orbitals and eigenvalues:
    n    l              occ      energy [Ha]    energy [eV]
    1    0           2.0000       -18.926989      -515.0296
    2    0           2.0000        -0.880247       -23.9527
    2    1           4.0000        -0.331514        -9.0210


  Species: O1

  List of occupied orbitals and eigenvalues:
    n    l              occ      energy [Ha]    energy [eV]
    1    0           2.0000       -18.927378      -515.0401
    2    0           2.0000        -0.880539       -23.9607
    2    1           4.0000        -0.331811        -9.0290

  Spin-polarized or charged system:
  Charge density initialized according to selected moments and charges.

  Creating spin-polarized density from free atoms.

  Species: Ti
  Charge:   0.000000
  Moment:   0.000000

  List of occupied orbitals and eigenvalues:
    n    l      energy [Ha]    energy [eV]    occupation
  Spin-up
    1    0      -179.959082     -4896.9358     1.00000000
    2    0       -19.727662      -536.8170     1.00000000
    3    0        -2.283029       -62.1244     1.00000000
    4    0        -0.148384        -4.0377     1.00000000
    2    1       -16.317278      -444.0157     3.00000000
    3    1        -1.409348       -38.3503     3.00000000
    3    2        -0.139340        -3.7916     1.00000000
  Spin-down
    1    0      -179.959082     -4896.9358     1.00000000
    2    0       -19.727662      -536.8170     1.00000000
    3    0        -2.283029       -62.1244     1.00000000
    4    0        -0.148384        -4.0377     1.00000000
    2    1       -16.317278      -444.0157     3.00000000
    3    1        -1.409348       -38.3503     3.00000000
    3    2        -0.139340        -3.7916     1.00000000


  Species: O1
  Charge:   0.000000
  Moment:   0.000000

  List of occupied orbitals and eigenvalues:
    n    l      energy [Ha]    energy [eV]    occupation
  Spin-up
    1    0       -18.927378      -515.0401     1.00000000
    2    0        -0.880539       -23.9607     1.00000000
    2    1        -0.331811        -9.0290     2.00000000
  Spin-down
    1    0       -18.927378      -515.0401     1.00000000
    2    0        -0.880539       -23.9607     1.00000000
    2    1        -0.331811        -9.0290     2.00000000


  Species: O
  Charge:   0.000000
  Moment:   0.000000

  List of occupied orbitals and eigenvalues:
    n    l      energy [Ha]    energy [eV]    occupation
  Spin-up
    1    0       -18.926989      -515.0296     1.00000000
    2    0        -0.880247       -23.9527     1.00000000
    2    1        -0.331514        -9.0210     2.00000000
  Spin-down
    1    0       -18.926989      -515.0296     1.00000000
    2    0        -0.880247       -23.9527     1.00000000
    2    1        -0.331514        -9.0210     2.00000000


  Adding cutoff potential to free-atom effective potential.
  Creating fixed part of basis set: Ionic, confined, hydrogenic.
 
  Ti                   ion:

  List of free ionic orbitals and eigenvalues:
    n    l      energy [Ha]    energy [eV]
    1    0      -180.819616     -4920.3521
    2    0       -20.608761      -560.7929
    3    0        -3.115729       -84.7833
    4    0        -0.697188       -18.9715
    2    1       -17.196209      -467.9327
    3    1        -2.231296       -60.7167
    3    2        -0.911363       -24.7995


  List of ionic basis orbitals and eigenvalues:
    n    l      energy [Ha]    energy [eV]    outer radius [A]
    4    1        -0.517739       -14.0884       4.592117
    4    0        -0.696824       -18.9615       4.536321

 
  Ti                   hydrogenic:
 
  List of hydrogenic basis orbitals: 
    n    l      effective z      eigenvalue [eV]  inner max. [A]     outer max. [A]     outer radius [A]   
    4    3         8.000000       -54.4222           1.059019           1.059019           4.267343
    3    2         2.700000       -10.7798           1.726925           1.726925           4.592117
 
 
  O                    hydrogenic:
 
  List of hydrogenic basis orbitals: 
    n    l      effective z      eigenvalue [eV]  inner max. [A]     outer max. [A]     outer radius [A]   
    2    1         1.800000       -10.9749           1.164242           1.164242           4.578029
    3    2         7.600000       -87.3180           0.624125           0.624125           3.251020
    3    0         6.400000       -61.9207           0.061167           1.081902           4.001998
 
 
  O1                   ion:

  List of free ionic orbitals and eigenvalues:
    n    l      energy [Ha]    energy [eV]
    1    0       -20.485570      -557.4407
    2    0        -2.134830       -58.0917
    2    1        -1.577627       -42.9294


  List of ionic basis orbitals and eigenvalues:
    n    l      energy [Ha]    energy [eV]    outer radius [A]
    2    1        -1.577621       -42.9293       3.541477

 
  O1                   hydrogenic:
 
  List of hydrogenic basis orbitals: 
    n    l      effective z      eigenvalue [eV]  inner max. [A]     outer max. [A]     outer radius [A]   
    2    1         1.800000       -11.0118           1.178562           1.178562           5.432602
    3    2         7.600000       -87.3182           0.624125           0.624125           3.541477
    3    0         6.400000       -61.9209           0.061167           1.081902           4.306578
    4    3        11.600000      -114.4238           0.731631           0.731631           3.585037
    3    1         6.200000       -58.1113           0.255680           1.030270           4.306578
    3    2         5.600000       -47.4081           0.847233           0.847233           4.413171
    5    4        17.600000      -168.5799           0.749740           0.749740           3.372465
    1    0         0.750000        -7.6499           0.705284           0.705284           5.366593
    4    3        10.800000       -99.1854           0.787313           0.787313           3.764702
    4    2         4.700000       -18.6841           0.758962           2.365807           5.499423
    2    0         6.800000      -157.2818           0.059689           0.406863           2.739620
    1    0        12.000000     -1959.2197           0.043971           0.043971           0.816724
    1    0        10.000000     -1360.5692           0.052821           0.052821           0.981101
    1    0         6.000000      -489.8049           0.088266           0.088266           1.561224
    2    0        10.000000      -340.1423           0.040365           0.278524           2.093567
    2    1         8.000000      -217.6911           0.265231           0.265231           2.365807
    2    1         6.000000      -122.4512           0.351348           0.351348           2.841960
    3    2         8.000000       -96.7515           0.594340           0.594340           3.455938
 
  Creating atomic-like basis functions for current effective potential.

  Species Ti                  :

  List of atomic basis orbitals and eigenvalues:
    n    l      energy [Ha]    energy [eV]    outer radius [A]
    1    0      -179.959082     -4896.9358       0.490254
    2    0       -19.727662      -536.8170       1.491292
    3    0        -2.283029       -62.1244       4.014314
    4    0        -0.148384        -4.0377       4.592117
    2    1       -16.317278      -444.0157       1.585290
    3    1        -1.409348       -38.3503       4.267343
    3    2        -0.139340        -3.7916       4.536321


  Species O                   :

  List of atomic basis orbitals and eigenvalues:
    n    l      energy [Ha]    energy [eV]    outer radius [A]
    1    0       -18.926989      -515.0296       1.415765
    2    0        -0.880247       -23.9527       4.413171
    2    1        -0.331514        -9.0210       4.522403


  Species O1                  :

  List of atomic basis orbitals and eigenvalues:
    n    l      energy [Ha]    energy [eV]    outer radius [A]
    1    0       -18.927378      -515.0401       1.415765
    2    0        -0.880539       -23.9607       5.048385
    2    1        -0.331811        -9.0290       5.301386

  Assembling full basis from fixed parts.
  | Species Ti :   atomic orbital   1 s accepted.
  | Species Ti :   atomic orbital   2 s accepted.
  | Species Ti :   atomic orbital   3 s accepted.
  | Species Ti :    ionic orbital   4 s accepted.
  | Species Ti :   atomic orbital   4 s accepted.
  | Species Ti :   atomic orbital   2 p accepted.
  | Species Ti :   atomic orbital   3 p accepted.
  | Species Ti :    ionic orbital   4 p accepted.
  | Species Ti :   atomic orbital   3 d accepted.
  | Species Ti :    hydro orbital   3 d accepted.
  | Species Ti :    hydro orbital   4 f accepted.
  | Species O :   atomic orbital   1 s accepted.
  | Species O :    hydro orbital   3 s accepted.
  | Species O :   atomic orbital   2 s accepted.
  | Species O :   atomic orbital   2 p accepted.
  | Species O :    hydro orbital   2 p accepted.
  | Species O :    hydro orbital   3 d accepted.
  | Species O1 :    hydro orbital   1 s accepted.
  | Species O1 :    hydro orbital   1 s accepted.
  | Species O1 :   atomic orbital   1 s accepted.
  | Species O1 :    hydro orbital   1 s accepted.
  | Species O1 :    hydro orbital   2 s accepted.
  | Species O1 :    hydro orbital   2 s accepted.
  | Species O1 :    hydro orbital   3 s accepted.
  | Species O1 :   atomic orbital   2 s accepted.
  | Species O1 :    hydro orbital   1 s accepted.
  | Species O1 :    hydro orbital   2 p accepted.
  | Species O1 :    hydro orbital   2 p accepted.
  | Species O1 :    ionic orbital   2 p accepted.
  | Species O1 :    hydro orbital   3 p accepted.
  | Species O1 :   atomic orbital   2 p accepted.
  | Species O1 :    hydro orbital   2 p accepted.
  | Species O1 :    hydro orbital   3 d accepted.
  | Species O1 :    hydro orbital   3 d accepted.
  | Species O1 :    hydro orbital   3 d accepted.
  | Species O1 :    hydro orbital   4 d accepted.
  | Species O1 :    hydro orbital   4 f accepted.
  | Species O1 :    hydro orbital   4 f accepted.
  | Species O1 :    hydro orbital   5 g accepted.
 
  Basis size parameters after reduction:
  | Total number of radial functions:       39
  | Total number of basis functions :      174
 
  Per-task memory consumption for arrays in subroutine allocate_ext:
  |          13.815132MB.
  Testing on-site integration grid accuracy.
  |  Species  Function  <phi|h_atom|phi> (log., in eV)  <phi|h_atom|phi> (rad., in eV)
           1        1              -4896.9357674450              -4896.9322830202
           1        2               -536.8170048508               -536.8169722333
           1        3                -62.1243896260                -62.1243889283
           1        4                 -3.2653235630                 -3.2692838808
           1        5                  6.7987747276                  6.5460721883 ***
           1        6               -444.0157161949               -444.0157165810
           1        7                -38.3503235548                -38.3503234963
           1        8                  0.2923930877                  0.2745948116
           1        9                 -3.7933400649                 -3.7959244177
           1       10                  6.3288803616                  6.2510614929 ***
           1       11                 27.8451455747                 27.8452636416
           2       12               -515.0295626295               -515.0294562738
           2       13                 15.1698434419                 15.1699322204
           2       14                -21.6038822678                -21.6039118105
           2       15                 -9.0211123393                 -9.0212703513
           2       16                  8.3047696391                  8.2854840999
           2       17                 45.8428042125                 45.8427461222
           3       18               -272.9322507263               -272.9201922371
           3       19               1665.9089384428               1665.9689459310 ***
           3       20               2095.2037268945               2095.2740316190 ***
           3       21               3047.3679718515               3047.0126721058 ***
           3       22               3234.6000205573               3231.5687071925 ***
           3       23               2428.4660356492               2422.2375593106 ***
           3       24                896.7802862158                893.3913916681 ***
           3       25               3128.2108268826               3108.2674944362 ***
           3       26                 71.8616615187                 71.1575837008 ***
           3       27                 15.4122562036                 15.4122564500
           3       28                101.7989356251                101.7989355629
           3       29                121.1064459338                121.1064460856
           3       30                271.5759585347                271.5759823164
           3       31                159.3966255928                159.3962927972
           3       32                153.6473243407                153.6504704037
           3       33                 50.7421815376                 50.7421815946
           3       34                 88.5010368311                 88.5010331056
           3       35                 82.9872957917                 82.9873669214
           3       36                 36.7418806245                 36.7419113216
           3       37                 85.4133898762                 85.4133899074
           3       38                115.1018427582                115.1018451832
           3       39                142.1023296234                142.1023296272
 * Note: Onsite integrals marked "***" above are less accurate than
 * onsite_accuracy_threshold =    0.03000 eV. Usually, this is harmless.
 * When in doubt, tighten the "radial" and/or "radial_multiplier" flags to check.

  Task       0:*** pseudo_inverse, for evaluate_coeff_d: error of  5.68E-14; eps:  1.00E-15
  Preparing densities etc. for the partition functions (integrals / Hartree potential).

  Preparations completed.
  max(cpu_time)          :      0.652 s.
  Wall clock time (cpu1) :      0.647 s.
------------------------------------------------------------
  After prepare_scf [GB]:   1030.69

  Initializing index lists of integration centers etc. from given atomic structure:
  Mapping all atomic coordinates to central unit cell.

  Initializing the k-points
  Using symmetry for reducing the k-points
  | k-points reduced from:      768 to      388
  | Number of k-points                             :       388
  The eigenvectors in the calculations are COMPLEX.
  | K-points in task   0:         3
  | K-points in task   1:         4
  | K-points in task   2:         4
  | K-points in task   3:         4
  | K-points in task   4:         4
  | K-points in task   5:         3
  | K-points in task   6:         3
  | K-points in task   7:         3
  | K-points in task   8:         3
  | K-points in task   9:         3
  | K-points in task  10:         3
  | K-points in task  11:         3
  | K-points in task  12:         3
  | K-points in task  13:         3
  | K-points in task  14:         3
  | K-points in task  15:         3
  | K-points in task  16:         3
  | K-points in task  17:         3
  | K-points in task  18:         3
  | K-points in task  19:         3
  | K-points in task  20:         3
  | K-points in task  21:         3
  | K-points in task  22:         3
  | K-points in task  23:         3
  | K-points in task  24:         3
  | K-points in task  25:         3
  | K-points in task  26:         3
  | K-points in task  27:         3
  | K-points in task  28:         3
  | K-points in task  29:         3
  | K-points in task  30:         3
  | K-points in task  31:         3
  | K-points in task  32:         3
  | K-points in task  33:         3
  | K-points in task  34:         3
  | K-points in task  35:         3
  | K-points in task  36:         3
  | K-points in task  37:         3
  | K-points in task  38:         3
  | K-points in task  39:         3
  | K-points in task  40:         3
  | K-points in task  41:         3
  | K-points in task  42:         3
  | K-points in task  43:         3
  | K-points in task  44:         3
  | K-points in task  45:         3
  | K-points in task  46:         3
  | K-points in task  47:         3
  | K-points in task  48:         3
  | K-points in task  49:         3
  | K-points in task  50:         3
  | K-points in task  51:         3
  | K-points in task  52:         3
  | K-points in task  53:         3
  | K-points in task  54:         3
  | K-points in task  55:         3
  | K-points in task  56:         3
  | K-points in task  57:         3
  | K-points in task  58:         3
  | K-points in task  59:         3
  | K-points in task  60:         3
  | K-points in task  61:         3
  | K-points in task  62:         3
  | K-points in task  63:         3
  | K-points in task  64:         3
  | K-points in task  65:         3
  | K-points in task  66:         3
  | K-points in task  67:         3
  | K-points in task  68:         3
  | K-points in task  69:         3
  | K-points in task  70:         3
  | K-points in task  71:         3
  | K-points in task  72:         3
  | K-points in task  73:         3
  | K-points in task  74:         3
  | K-points in task  75:         3
  | K-points in task  76:         3
  | K-points in task  77:         3
  | K-points in task  78:         3
  | K-points in task  79:         3
  | K-points in task  80:         3
  | K-points in task  81:         3
  | K-points in task  82:         3
  | K-points in task  83:         3
  | K-points in task  84:         3
  | K-points in task  85:         3
  | K-points in task  86:         3
  | K-points in task  87:         3
  | K-points in task  88:         3
  | K-points in task  89:         3
  | K-points in task  90:         3
  | K-points in task  91:         3
  | K-points in task  92:         3
  | K-points in task  93:         3
  | K-points in task  94:         3
  | K-points in task  95:         3
  | K-points in task  96:         3
  | K-points in task  97:         3
  | K-points in task  98:         3
  | K-points in task  99:         3
  | K-points in task 100:         3
  | K-points in task 101:         3
  | K-points in task 102:         3
  | K-points in task 103:         3
  | K-points in task 104:         3
  | K-points in task 105:         3
  | K-points in task 106:         3
  | K-points in task 107:         3
  | K-points in task 108:         3
  | K-points in task 109:         3
  | K-points in task 110:         3
  | K-points in task 111:         3
  | K-points in task 112:         3
  | K-points in task 113:         3
  | K-points in task 114:         3
  | K-points in task 115:         3
  | K-points in task 116:         3
  | K-points in task 117:         3
  | K-points in task 118:         3
  | K-points in task 119:         3
  | K-points in task 120:         3
  | K-points in task 121:         3
  | K-points in task 122:         3
  | K-points in task 123:         3
  | K-points in task 124:         3
  | K-points in task 125:         3
  | K-points in task 126:         3
  | K-points in task 127:         3
  | k-point: 1 at     0.000000    0.000000    0.000000  , weight:   0.00130208
  | k-point: 2 at     0.000000    0.000000    0.083333  , weight:   0.00260417
  | k-point: 3 at     0.000000    0.000000    0.250000  , weight:   0.00260417
  | k-point: 4 at     0.000000    0.000000    0.333333  , weight:   0.00260417
  | k-point: 5 at     0.000000    0.000000    0.416667  , weight:   0.00260417
  | k-point: 6 at     0.000000    0.000000    0.500000  , weight:   0.00130208
  | k-point: 7 at     0.000000    0.000000    0.833333  , weight:   0.00260417
  | k-point: 8 at     0.000000    0.125000    0.000000  , weight:   0.00260417
  | k-point: 9 at     0.000000    0.125000    0.083333  , weight:   0.00260417
  | k-point: 10 at     0.000000    0.125000    0.166667  , weight:   0.00260417
  | k-point: 11 at     0.000000    0.125000    0.333333  , weight:   0.00260417
  | k-point: 12 at     0.000000    0.125000    0.416667  , weight:   0.00260417
  | k-point: 13 at     0.000000    0.125000    0.500000  , weight:   0.00260417
  | k-point: 14 at     0.000000    0.125000    0.666667  , weight:   0.00260417
  | k-point: 15 at     0.000000    0.125000    0.750000  , weight:   0.00260417
  | k-point: 16 at     0.000000    0.125000    0.833333  , weight:   0.00260417
  | k-point: 17 at     0.000000    0.250000    0.000000  , weight:   0.00260417
  | k-point: 18 at     0.000000    0.250000    0.083333  , weight:   0.00260417
  | k-point: 19 at     0.000000    0.250000    0.166667  , weight:   0.00260417
  | k-point: 20 at     0.000000    0.250000    0.333333  , weight:   0.00260417
  | k-point: 21 at     0.000000    0.250000    0.416667  , weight:   0.00260417
  | k-point: 22 at     0.000000    0.250000    0.500000  , weight:   0.00260417
  | k-point: 23 at     0.000000    0.250000    0.666667  , weight:   0.00260417
  | k-point: 24 at     0.000000    0.250000    0.750000  , weight:   0.00260417
  | k-point: 25 at     0.000000    0.250000    0.833333  , weight:   0.00260417
  | k-point: 26 at     0.000000    0.375000    0.000000  , weight:   0.00260417
  | k-point: 27 at     0.000000    0.375000    0.083333  , weight:   0.00260417
  | k-point: 28 at     0.000000    0.375000    0.166667  , weight:   0.00260417
  | k-point: 29 at     0.000000    0.375000    0.333333  , weight:   0.00260417
  | k-point: 30 at     0.000000    0.375000    0.416667  , weight:   0.00260417
  | k-point: 31 at     0.000000    0.375000    0.500000  , weight:   0.00260417
  | k-point: 32 at     0.000000    0.375000    0.666667  , weight:   0.00260417
  | k-point: 33 at     0.000000    0.375000    0.750000  , weight:   0.00260417
  | k-point: 34 at     0.000000    0.375000    0.833333  , weight:   0.00260417
  | k-point: 35 at     0.000000    0.500000    0.000000  , weight:   0.00130208
  | k-point: 36 at     0.000000    0.500000    0.083333  , weight:   0.00260417
  | k-point: 37 at     0.000000    0.500000    0.166667  , weight:   0.00260417
  | k-point: 38 at     0.000000    0.500000    0.333333  , weight:   0.00260417
  | k-point: 39 at     0.000000    0.500000    0.416667  , weight:   0.00260417
  | k-point: 40 at     0.000000    0.500000    0.500000  , weight:   0.00130208
  | k-point: 41 at     0.000000    0.500000    0.750000  , weight:   0.00260417
  | k-point: 42 at     0.000000    0.625000    0.083333  , weight:   0.00260417
  | k-point: 43 at     0.000000    0.625000    0.416667  , weight:   0.00260417
  | k-point: 44 at     0.000000    0.625000    0.750000  , weight:   0.00260417
  | k-point: 45 at     0.000000    0.750000    0.083333  , weight:   0.00260417
  | k-point: 46 at     0.000000    0.750000    0.416667  , weight:   0.00260417
  | k-point: 47 at     0.000000    0.750000    0.750000  , weight:   0.00260417
  | k-point: 48 at     0.000000    0.875000    0.083333  , weight:   0.00260417
  | k-point: 49 at     0.000000    0.875000    0.416667  , weight:   0.00260417
  | k-point: 50 at     0.000000    0.875000    0.750000  , weight:   0.00260417
  | k-point: 51 at     0.125000    0.000000    0.000000  , weight:   0.00260417
  | k-point: 52 at     0.125000    0.000000    0.166667  , weight:   0.00260417
  | k-point: 53 at     0.125000    0.000000    0.250000  , weight:   0.00260417
  | k-point: 54 at     0.125000    0.000000    0.333333  , weight:   0.00260417
  | k-point: 55 at     0.125000    0.000000    0.500000  , weight:   0.00260417
  | k-point: 56 at     0.125000    0.000000    0.583333  , weight:   0.00260417
  | k-point: 57 at     0.125000    0.000000    0.666667  , weight:   0.00260417
  | k-point: 58 at     0.125000    0.000000    0.833333  , weight:   0.00260417
  | k-point: 59 at     0.125000    0.000000    0.916667  , weight:   0.00260417
  | k-point: 60 at     0.125000    0.125000    0.000000  , weight:   0.00260417
  | k-point: 61 at     0.125000    0.125000    0.166667  , weight:   0.00260417
  | k-point: 62 at     0.125000    0.125000    0.250000  , weight:   0.00260417
  | k-point: 63 at     0.125000    0.125000    0.333333  , weight:   0.00260417
  | k-point: 64 at     0.125000    0.125000    0.500000  , weight:   0.00260417
  | k-point: 65 at     0.125000    0.125000    0.583333  , weight:   0.00260417
  | k-point: 66 at     0.125000    0.125000    0.666667  , weight:   0.00260417
  | k-point: 67 at     0.125000    0.125000    0.833333  , weight:   0.00260417
  | k-point: 68 at     0.125000    0.125000    0.916667  , weight:   0.00260417
  | k-point: 69 at     0.125000    0.250000    0.000000  , weight:   0.00260417
  | k-point: 70 at     0.125000    0.250000    0.166667  , weight:   0.00260417
  | k-point: 71 at     0.125000    0.250000    0.250000  , weight:   0.00260417
  | k-point: 72 at     0.125000    0.250000    0.333333  , weight:   0.00260417
  | k-point: 73 at     0.125000    0.250000    0.500000  , weight:   0.00260417
  | k-point: 74 at     0.125000    0.250000    0.583333  , weight:   0.00260417
  | k-point: 75 at     0.125000    0.250000    0.666667  , weight:   0.00260417
  | k-point: 76 at     0.125000    0.250000    0.833333  , weight:   0.00260417
  | k-point: 77 at     0.125000    0.250000    0.916667  , weight:   0.00260417
  | k-point: 78 at     0.125000    0.375000    0.000000  , weight:   0.00260417
  | k-point: 79 at     0.125000    0.375000    0.166667  , weight:   0.00260417
  | k-point: 80 at     0.125000    0.375000    0.250000  , weight:   0.00260417
  | k-point: 81 at     0.125000    0.375000    0.333333  , weight:   0.00260417
  | k-point: 82 at     0.125000    0.375000    0.500000  , weight:   0.00260417
  | k-point: 83 at     0.125000    0.375000    0.583333  , weight:   0.00260417
  | k-point: 84 at     0.125000    0.375000    0.666667  , weight:   0.00260417
  | k-point: 85 at     0.125000    0.375000    0.833333  , weight:   0.00260417
  | k-point: 86 at     0.125000    0.375000    0.916667  , weight:   0.00260417
  | k-point: 87 at     0.125000    0.500000    0.000000  , weight:   0.00260417
  | k-point: 88 at     0.125000    0.500000    0.166667  , weight:   0.00260417
  | k-point: 89 at     0.125000    0.500000    0.250000  , weight:   0.00260417
  | k-point: 90 at     0.125000    0.500000    0.333333  , weight:   0.00260417
  | k-point: 91 at     0.125000    0.500000    0.500000  , weight:   0.00260417
  | k-point: 92 at     0.125000    0.500000    0.583333  , weight:   0.00260417
  | k-point: 93 at     0.125000    0.500000    0.666667  , weight:   0.00260417
  | k-point: 94 at     0.125000    0.500000    0.833333  , weight:   0.00260417
  | k-point: 95 at     0.125000    0.500000    0.916667  , weight:   0.00260417
  | k-point: 96 at     0.125000    0.625000    0.000000  , weight:   0.00260417
  | k-point: 97 at     0.125000    0.625000    0.166667  , weight:   0.00260417
  | k-point: 98 at     0.125000    0.625000    0.250000  , weight:   0.00260417
  | k-point: 99 at     0.125000    0.625000    0.333333  , weight:   0.00260417
  | k-point: 100 at     0.125000    0.625000    0.500000  , weight:   0.00260417
  | k-point: 101 at     0.125000    0.625000    0.583333  , weight:   0.00260417
  | k-point: 102 at     0.125000    0.625000    0.666667  , weight:   0.00260417
  | k-point: 103 at     0.125000    0.625000    0.833333  , weight:   0.00260417
  | k-point: 104 at     0.125000    0.625000    0.916667  , weight:   0.00260417
  | k-point: 105 at     0.125000    0.750000    0.000000  , weight:   0.00260417
  | k-point: 106 at     0.125000    0.750000    0.166667  , weight:   0.00260417
  | k-point: 107 at     0.125000    0.750000    0.250000  , weight:   0.00260417
  | k-point: 108 at     0.125000    0.750000    0.333333  , weight:   0.00260417
  | k-point: 109 at     0.125000    0.750000    0.500000  , weight:   0.00260417
  | k-point: 110 at     0.125000    0.750000    0.583333  , weight:   0.00260417
  | k-point: 111 at     0.125000    0.750000    0.666667  , weight:   0.00260417
  | k-point: 112 at     0.125000    0.750000    0.833333  , weight:   0.00260417
  | k-point: 113 at     0.125000    0.750000    0.916667  , weight:   0.00260417
  | k-point: 114 at     0.125000    0.875000    0.000000  , weight:   0.00260417
  | k-point: 115 at     0.125000    0.875000    0.166667  , weight:   0.00260417
  | k-point: 116 at     0.125000    0.875000    0.250000  , weight:   0.00260417
  | k-point: 117 at     0.125000    0.875000    0.333333  , weight:   0.00260417
  | k-point: 118 at     0.125000    0.875000    0.500000  , weight:   0.00260417
  | k-point: 119 at     0.125000    0.875000    0.583333  , weight:   0.00260417
  | k-point: 120 at     0.125000    0.875000    0.666667  , weight:   0.00260417
  | k-point: 121 at     0.125000    0.875000    0.833333  , weight:   0.00260417
  | k-point: 122 at     0.125000    0.875000    0.916667  , weight:   0.00260417
[...]
     11       1.00000         -16.470656         -448.18934
     12       1.00000         -16.470552         -448.18652
     13       1.00000         -16.470346         -448.18092
     14       1.00000         -16.470340         -448.18074
     15       1.00000          -2.414036          -65.68926
     16       1.00000          -2.413461          -65.67362
     17       1.00000          -1.542920          -41.98499
     18       1.00000          -1.542647          -41.97756
     19       1.00000          -1.537153          -41.82806
     20       1.00000          -1.537133          -41.82752
     21       1.00000          -1.536075          -41.79872
     22       1.00000          -1.534986          -41.76910
     23       1.00000          -0.985313          -26.81174
     24       1.00000          -0.944065          -25.68933
     25       1.00000          -0.919023          -25.00788
     26       1.00000          -0.918527          -24.99440
     27       1.00000          -0.528892          -14.39189
     28       1.00000          -0.512933          -13.95761
     29       1.00000          -0.493539          -13.42987
     30       1.00000          -0.458177          -12.46763
     31       1.00000          -0.457782          -12.45689
     32       1.00000          -0.412892          -11.23536
     33       1.00000          -0.412386          -11.22158
     34       1.00000          -0.391203          -10.64517
     35       1.00000          -0.346059           -9.41673
     36       1.00000          -0.336917           -9.16799
     37       1.00000          -0.336328           -9.15195
     38       1.00000          -0.319890           -8.70466
     39       0.00000          -0.253758           -6.90510
     40       0.00000          -0.242850           -6.60828
     41       0.00000          -0.233434           -6.35205
     42       0.00000          -0.231212           -6.29159
     43       0.00000          -0.231172           -6.29050
     44       0.00000          -0.166936           -4.54256
     45       0.00000          -0.157957           -4.29824
     46       0.00000          -0.083668           -2.27673
     47       0.00000          -0.083511           -2.27244
     48       0.00000          -0.052029           -1.41578
     49       0.00000          -0.034630           -0.94233
     50       0.00000           0.108955            2.96482
     51       0.00000           0.111856            3.04376
     52       0.00000           0.211127            5.74507
     53       0.00000           0.259707            7.06699
     54       0.00000           0.300796            8.18507
     55       0.00000           0.339626            9.24171
     56       0.00000           0.389661           10.60323
     57       0.00000           0.390914           10.63732
     58       0.00000           0.428517           11.66054
     59       0.00000           0.464064           12.62783
     60       0.00000           0.554600           15.09143
     61       0.00000           0.617653           16.80721

  Spin-down eigenvalues:
  K-point:       1 at    0.000000    0.000000    0.000000 (in units of recip. lattice)

  State    Occupation    Eigenvalue [Ha]    Eigenvalue [eV]
      1       1.00000        -180.088520        -4900.45796
      2       1.00000        -180.087776        -4900.43772
      3       1.00000         -19.883487         -541.05721
      4       1.00000         -19.883206         -541.04956
      5       1.00000         -18.871311         -513.51449
      6       1.00000         -18.870595         -513.49502
      7       1.00000         -18.870595         -513.49502
      8       1.00000         -18.869882         -513.47562
      9       1.00000         -16.470835         -448.19421
     10       1.00000         -16.470744         -448.19175
     11       1.00000         -16.470656         -448.18934
     12       1.00000         -16.470552         -448.18652
     13       1.00000         -16.470346         -448.18092
     14       1.00000         -16.470340         -448.18074
     15       1.00000          -2.414036          -65.68926
     16       1.00000          -2.413461          -65.67362
     17       1.00000          -1.542920          -41.98499
     18       1.00000          -1.542647          -41.97756
     19       1.00000          -1.537153          -41.82806
     20       1.00000          -1.537133          -41.82752
     21       1.00000          -1.536075          -41.79872
     22       1.00000          -1.534986          -41.76910
     23       1.00000          -0.985313          -26.81174
     24       1.00000          -0.944065          -25.68933
     25       1.00000          -0.919023          -25.00788
     26       1.00000          -0.918527          -24.99440
     27       1.00000          -0.528892          -14.39189
     28       1.00000          -0.512933          -13.95761
     29       1.00000          -0.493539          -13.42987
     30       1.00000          -0.458177          -12.46763
     31       1.00000          -0.457782          -12.45689
     32       1.00000          -0.412892          -11.23536
     33       1.00000          -0.412386          -11.22158
     34       1.00000          -0.391203          -10.64517
     35       1.00000          -0.346059           -9.41673
     36       1.00000          -0.336917           -9.16799
     37       1.00000          -0.336328           -9.15195
     38       1.00000          -0.319890           -8.70466
     39       0.00000          -0.253758           -6.90510
     40       0.00000          -0.242850           -6.60828
     41       0.00000          -0.233434           -6.35205
     42       0.00000          -0.231212           -6.29159
     43       0.00000          -0.231172           -6.29050
     44       0.00000          -0.166936           -4.54256
     45       0.00000          -0.157957           -4.29824
     46       0.00000          -0.083668           -2.27673
     47       0.00000          -0.083511           -2.27244
     48       0.00000          -0.052029           -1.41578
     49       0.00000          -0.034630           -0.94233
     50       0.00000           0.108955            2.96482
     51       0.00000           0.111856            3.04376
     52       0.00000           0.211127            5.74507
     53       0.00000           0.259707            7.06699
     54       0.00000           0.300796            8.18507
     55       0.00000           0.339626            9.24171
     56       0.00000           0.389661           10.60323
     57       0.00000           0.390914           10.63732
     58       0.00000           0.428517           11.66054
     59       0.00000           0.464064           12.62783
     60       0.00000           0.554600           15.09143
     61       0.00000           0.617653           16.80721

  Current spin moment of the entire structure :
  | N = N_up - N_down (sum over all k points):         0.00000
  | S (sum over all k points)                :         0.00000

  What follows are estimated values for band gap, HOMO, LUMO, etc.
  | They are estimated on a discrete k-point grid and not necessarily exact.
  | For converged numbers, create a DOS and/or band structure plot on a denser k-grid.

  Highest occupied state (VBM) at     -8.70465873 eV (relative to internal zero)
  | Occupation number:      1.00000000
  | K-point:       1 at    0.000000    0.000000    0.000000 (in units of recip. lattice)
  | Spin channel:        2

  Lowest unoccupied state (CBM) at    -6.90509847 eV (relative to internal zero)
  | Occupation number:      0.00000000
  | K-point:       1 at    0.000000    0.000000    0.000000 (in units of recip. lattice)
  | Spin channel:        1

  ESTIMATED overall HOMO-LUMO gap:      1.79956025 eV between HOMO at k-point 1 and LUMO at k-point 1
  | This appears to be a direct band gap.
  The gap value is above 0.2 eV. Unless you are using a very sparse k-point grid,
  this system is most likely an insulator or a semiconductor.

  | Chemical Potential                          :    -6.94937860 eV
  | Note that, for insulating systems, the printed 'chemical potential' value is not uniquely defined.
  | It can be anywhere in the energy gap, as long as it correctly separates occupied and unoccupied states.
  | In systems with a gap, the physically relevant chemical potential is the VBM or HOMO.

  Self-consistency cycle converged.


------------------------------------------------------------
  End self-consistency iteration #    19       :  max(cpu_time)    wall_clock(cpu1)
  | Time for this iteration                     :        0.333 s           0.333 s
  | Charge density update                       :        0.000 s           0.000 s
  | Density mixing                              :        0.001 s           0.000 s
  | Hartree multipole update                    :        0.002 s           0.002 s
  | Hartree multipole summation                 :        0.021 s           0.021 s
  | Integration                                 :        0.191 s           0.190 s
  | Solution of K.-S. eqns.                     :        0.117 s           0.117 s
  | Total energy evaluation                     :        0.002 s           0.001 s

  Partial memory accounting:
  | Current value for overall tracked memory usage:
  |   Minimum:       16.815 MB (on task  26)
  |   Maximum:       17.182 MB (on task   3)
  |   Average:       16.877 MB
  | Peak value for overall tracked memory usage:
  |   Minimum:       31.545 MB (on task   0 after allocating KS_scaled_cmplx)
  |   Maximum:       37.145 MB (on task  75 after allocating KS_scaled_cmplx)
  |   Average:       33.759 MB
  | Largest tracked array allocation so far:
  |   Minimum:        8.795 MB (hamiltonian_shell on task   0)
  |   Maximum:       12.403 MB (hamiltonian_shell on task  75)
  |   Average:        9.793 MB
  Note:  These values currently only include a subset of arrays which are explicitly tracked.
  The "true" memory usage will be greater.
------------------------------------------------------------

  Energy and forces in a compact form:
  | Total energy uncorrected      :         -0.548011208923365E+05 eV
  | Total energy corrected        :         -0.548011208923365E+05 eV  <-- do not rely on this value for anything but (periodic) metals
  | Electronic free energy        :         -0.548011208923365E+05 eV

  ------------------------------------ 
  Start decomposition of the XC Energy 
  ------------------------------------ 
  X and C from original XC functional choice 
  Hartree-Fock Energy :          0.000000000 Ha              0.000000000 eV
  X Energy            :       -115.614648034 Ha          -3146.034641476 eV
  C Energy            :         -3.010302904 Ha            -81.914509774 eV
  XC Energy w/o HF    :       -118.624950937 Ha          -3227.949151250 eV
  Total XC Energy     :       -118.624950937 Ha          -3227.949151250 eV
  ------------------------------------ 
  LDA X and C from self-consistent density 
  X Energy LDA        :       -107.326171812 Ha          -2920.493728084 eV
  C Energy LDA        :         -5.871446105 Ha           -159.770177536 eV
  ------------------------------------ 
  End decomposition of the XC Energy 
  ------------------------------------ 

------------------------------------------------------------

  ------------------------------------------------------------
                   Starting Mulliken Analysis
  ------------------------------------------------------------

  Performing Mulliken charge analysis on all atoms.
  Full analysis will be written to separate file 'Mulliken.out'.
  Summary of the per-atom charge analysis:
  |
  |  atom       electrons          charge             l=0             l=1             l=2             l=3             l=4
  |     1       21.196179        0.803821        6.179644       12.622604        2.254419        0.139512
  |     2       21.317522        0.682478        6.271493       12.665320        2.244443        0.136265
  |     3        7.417025        0.582975        3.664432        4.250965       -0.507257        0.008086        0.000798
  |     4        8.683314       -0.683314        3.846643        4.826872        0.009799
  |     5        8.692981       -0.692981        3.843853        4.839324        0.009804
  |     6        8.692979       -0.692979        3.843852        4.839322        0.009804
  |
  | Total       76.000000       -0.000000
 
  Summary of the per-atom spin analysis:
  |
  |  atom   spin      l=0         l=1         l=2         l=3         l=4
  |     1    0.000000    0.000000    0.000000    0.000000    0.000000
  |     2    0.000000    0.000000    0.000000    0.000000    0.000000
  |     3   -0.000000   -0.000000    0.000000    0.000000    0.000000    0.000000
  |     4    0.000000    0.000000   -0.000000   -0.000000
  |     5    0.000000    0.000000    0.000000   -0.000000
  |     6    0.000000   -0.000000    0.000000   -0.000000
  |
  | Total    0.000000
 
  Writing Mulliken decomposition to disk ...

  Mulliken analysis                                       :  max(cpu_time)    wall_clock(cpu1)
  | Time for Mulliken analysis                            :          2.040               2.041
  | Total time for Mulliken analysis                      :          2.040               2.041
------------------------------------------------------------

------------------------------------------------------------------------------
  Final output of selected total energy values:

  The following output summarizes some interesting total energy values
  at the end of a run (AFTER all relaxation, molecular dynamics, etc.).

  | Total energy of the DFT / Hartree-Fock s.c.f. calculation      :         -54801.120892336 eV
  | Final zero-broadening corrected energy (caution - metals only) :         -54801.120892336 eV
  | For reference only, the value of 1 Hartree used in FHI-aims is :             27.211384500 eV
  | For reference only, the overall average (free atom contribution
  | + realspace contribution) of the electrostatic potential after
  | s.c.f. convergence is                                          :            -16.990070916 eV

  Before relying on these values, please be sure to understand exactly which
  total energy value is referred to by a given number. Different objects may
  all carry the same name 'total energy'. Definitions:

  Total energy of the DFT / Hartree-Fock s.c.f. calculation:
  | Note that this energy does not include ANY quantities calculated after the
  | s.c.f. cycle, in particular not ANY RPA, MP2, etc. many-body perturbation terms.

  Final zero-broadening corrected energy:
  | For metallic systems only, a broadening of the occupation numbers at the Fermi
  | level can be extrapolated back to zero broadening by an electron-gas inspired
  | formula. For all systems that are not real metals, this value can be
  | meaningless and should be avoided.

------------------------------------------------------------------------------
  Methods described in the following list of references were used in this FHI-aims run.
  If you publish the results, please make sure to cite these reference if they apply.
  FHI-aims is an academic code, and for our developers (often, Ph.D. students
  and postdocs), scientific credit in the community is essential.
  Thank you for helping us!

  For any use of FHI-aims, please cite:

    Volker Blum, Ralf Gehrke, Felix Hanke, Paula Havu, Ville Havu,
    Xinguo Ren, Karsten Reuter, and Matthias Scheffler
    'Ab initio molecular simulations with numeric atom-centered orbitals'
    Computer Physics Communications 180, 2175-2196 (2009)
    http://doi.org/10.1016/j.cpc.2009.06.022


  The provided symmetry information was generated with SPGlib:

    Atsushi Togo, Yusuke Seto, Dimitar Pashov
    SPGlib 1.7.3 obtained from http://spglib.sourceforge.net
    Licence: New BSD license
    Copyright (C) 2008 Atsushi Togo


  The ELSI infrastructure was used in your run to solve the Kohn-Sham electronic structure.
  Please check out https://wordpress.elsi-interchange.org to learn more.
  If scalability is important for your project, please acknowledge ELSI by citing:

    V. W-z. Yu, F. Corsetti, A. Garcia, W. P. Huhn, M. Jacquelin, W. Jia,
    B. Lange, L. Lin, J. Lu, W. Mi, A. Seifitokaldani, A. Vazquez-Mayagoitia,
    C. Yang, H. Yang, and V. Blum
    'ELSI: A unified software interface for Kohn-Sham electronic structure solvers'
    Computer Physics Communications 222, 267-285 (2018).
    http://doi.org/10.1016/j.cpc.2017.09.007


  For the real-space grid partitioning and parallelization used in this calculation, please cite:

    Ville Havu, Volker Blum, Paula Havu, and Matthias Scheffler,
    'Efficient O(N) integration for all-electron electronic structure calculation'
    'using numerically tabulated basis functions'
    Journal of Computational Physics 228, 8367-8379 (2009).
    http://doi.org/10.1016/j.jcp.2009.08.008

  Of course, there are many other important community references, e.g., those cited in the
  above references. Our list is limited to references that describe implementations in the
  FHI-aims code. The reason is purely practical (length of this list) - please credit others as well.

------------------------------------------------------------
          Leaving FHI-aims.
          Date     :  20240919, Time     :  162721.708

          Computational steps:
          | Number of self-consistency cycles          :           19
          | Number of SCF (re)initializations          :            1

          Detailed time accounting                     :  max(cpu_time)    wall_clock(cpu1)
          | Total time                                  :       18.458 s          18.460 s
          | Preparation time                            :        0.652 s           0.647 s
          | Boundary condition initalization            :        0.076 s           0.076 s
          | Grid partitioning                           :        0.020 s           0.020 s
          | Preloading free-atom quantities on grid     :        0.080 s           0.081 s
          | Free-atom superposition energy              :        0.003 s           0.003 s
          | Total time for integrations                 :        3.976 s           3.974 s
          | Total time for solution of K.-S. equations  :        2.352 s           2.352 s
          | Total time for density update               :        8.553 s           8.553 s
          | Total time for mixing                       :        0.013 s           0.010 s
          | Total time for Hartree multipole update     :        0.035 s           0.032 s
          | Total time for Hartree multipole sum        :        0.446 s           0.448 s
          | Total time for total energy evaluation      :        0.039 s           0.035 s
          | Total time for scaled ZORA corrections      :        0.000 s           0.000 s
          | Total time for Mulliken analysis            :        2.040 s           2.041 s

          Partial memory accounting:
          | Residual value for overall tracked memory usage across tasks:     0.000000 MB (should be 0.000000 MB)
          | Peak values for overall tracked memory usage:
          |   Minimum:       31.545 MB (on task   0 after allocating KS_scaled_cmplx)
          |   Maximum:       37.145 MB (on task  75 after allocating KS_scaled_cmplx)
          |   Average:       33.759 MB
          | Largest tracked array allocation:
          |   Minimum:        8.795 MB (hamiltonian_shell on task   0)
          |   Maximum:       12.403 MB (hamiltonian_shell on task  75)
          |   Average:        9.793 MB
          Note:  These values currently only include a subset of arrays which are explicitly tracked.
          The "true" memory usage will be greater.

          Have a nice day.
------------------------------------------------------------
