------------------------------------------------------------
          Invoking FHI-aims ...

          When using FHI-aims, please cite the following reference:

            Volker Blum, Ralf Gehrke, Felix Hanke, Paula Havu,
            Ville Havu, Xinguo Ren, Karsten Reuter, and Matthias Scheffler,
            'Ab Initio Molecular Simulations with Numeric Atom-Centered Orbitals',
            Computer Physics Communications 180, 2175-2196 (2009)

          In addition, many other developments in FHI-aims are likely important for
          your particular application. If so, please cite them. A partial list of references
          is written at the end of this file. Thank you for giving credit to the authors
          of these developments.

          For general information about FHI-aims please find us at

            https://fhi-aims.org

          Online tutorials can be found at

            https://fhi-aims-club.gitlab.io/tutorials/tutorials-overview/

          For any questions about FHI-aims, please visit our slack channel at

            https://fhi-aims.slack.com

          and our main development and support site at

            https://aims-git.rz-berlin.mpg.de .

          The latter site, in particular, has a wiki to collect information, as well
          as an issue tracker to log discussions, suggest improvements, and report issues
          or bugs. https://aims-git.rz-berlin.mpg.de is also the main development site
          of the project and all new and updated code versions can be obtained there.
          Please send an email to aims-coordinators@fhi-berlin.mpg.de and we will add
          you to these sites. They are for you and everyone is welcome there.

------------------------------------------------------------



  Date     :  20240709, Time     :  135347.001
  Time zero on CPU 1             :   0.430237000000000E+00  s.
  Internal wall clock time zero  :           489765227.001  s.

  FHI-aims created a unique identifier for this run for later identification
  aims_uuid : 5B3E6158-A931-4332-AFA3-479FB7E3A9C1

  Build configuration of the current instance of FHI-aims
  -------------------------------------------------------
  FHI-aims version      : 240605
  Commit number         : b001b2e18
  CMake host system     : Linux-6.5.0-41-generic
  CMake version         : 3.22.1
  Fortran compiler      : /opt/intel/oneapi/mpi/2021.12/bin/mpiifort (IntelLLVM) version 2024.1.0
  Fortran compiler flags: -fc=ifx -O3 -ip -fp-model precise
  C compiler            : /opt/intel/oneapi/mpi/2021.12/bin/mpiicc (IntelLLVM) version 2024.1.0
  C compiler flags      : -cc=icx -O3 -ip -fp-model precise -std=gnu99
  C++ compiler          : /opt/intel/oneapi/mpi/2021.12/bin/mpiicpc (IntelLLVM) version 2024.1.0
  C++ compiler flags    : -cxx=icpx -O3 -ip -fp-model precise -std=c++11
  HIP compiler          :
  HIP compiler flags    :
  HIP GPU arch          :
  Using MPI
  Using ScaLAPACK
  Using LibXC
  Using i-PI
  Using RLSY
  Linking against: /opt/intel/oneapi/mkl/2024.1/lib/intel64/libmkl_intel_lp64.so
                   /opt/intel/oneapi/mkl/2024.1/lib/intel64/libmkl_sequential.so
                   /opt/intel/oneapi/mkl/2024.1/lib/intel64/libmkl_core.so
                   /opt/intel/oneapi/mkl/2024.1/lib/intel64/libmkl_blacs_intelmpi_lp64.so
                   /opt/intel/oneapi/mkl/2024.1/lib/intel64/libmkl_scalapack_lp64.so
                   /opt/intel/oneapi/mkl/2024.1/lib/intel64/libmkl_core.so

  Using       24 parallel tasks.
  Task        0 on host RSL-arvutus reporting.
  Task        1 on host RSL-arvutus reporting.
  Task        2 on host RSL-arvutus reporting.
  Task        3 on host RSL-arvutus reporting.
  Task        4 on host RSL-arvutus reporting.
  Task        5 on host RSL-arvutus reporting.
  Task        6 on host RSL-arvutus reporting.
  Task        7 on host RSL-arvutus reporting.
  Task        8 on host RSL-arvutus reporting.
  Task        9 on host RSL-arvutus reporting.
  Task       10 on host RSL-arvutus reporting.
  Task       11 on host RSL-arvutus reporting.
  Task       12 on host RSL-arvutus reporting.
  Task       13 on host RSL-arvutus reporting.
  Task       14 on host RSL-arvutus reporting.
  Task       15 on host RSL-arvutus reporting.
  Task       16 on host RSL-arvutus reporting.
  Task       17 on host RSL-arvutus reporting.
  Task       18 on host RSL-arvutus reporting.
  Task       19 on host RSL-arvutus reporting.
  Task       20 on host RSL-arvutus reporting.
  Task       21 on host RSL-arvutus reporting.
  Task       22 on host RSL-arvutus reporting.
  Task       23 on host RSL-arvutus reporting.

  Memory overcommitment is allowed on your operating system.

  Obtaining array dimensions for all initial allocations:
  
  -----------------------------------------------------------------------
  Parsing control.in (first pass over file, find array dimensions only).
  The contents of control.in will be repeated verbatim below
  unless switched off by setting 'verbatim_writeout .false.' .
  in the first line of control.in .
  -----------------------------------------------------------------------
  
  xc              scan
  relativistic    atomic_zora scalar
  k_grid          8 8 8
  relax_geometry  bfgs 5e-3
  relax_unit_cell full
  ################################################################################
  #
  #  FHI-aims code project
  #  Volker Blum, Fritz Haber Institute Berlin, 2009
  #
  #  Suggested "tight" defaults for Ti atom (to be pasted into control.in file)
  #
  ################################################################################
    species        Ti
  #     global species definitions
      nucleus             22
      mass                47.867
  #
      l_hartree           6
  #
      cut_pot             4.0          2.0  1.0
      basis_dep_cutoff    1e-4
  #
      radial_base         48 7.0
      radial_multiplier   2
      angular_grids       specified
        division   0.3263   50
        division   0.7218  110
        division   1.0925  194
        division   1.3188  302
        division   1.4940  434
  #      division   1.6583  590
  #      division   1.8821  770
  #      division   2.0961  974
  #      division   3.3854 1202
  #      outer_grid  974
        outer_grid  434
  ################################################################################
  #
  #  Definition of "minimal" basis
  #
  ################################################################################
  #     valence basis states
      valence      4  s   2.
      valence      3  p   6.
      valence      3  d   2.
  #     ion occupancy
      ion_occ      4  s   1.
      ion_occ      3  p   6.
      ion_occ      3  d   1.
  ################################################################################
  #
  #  Suggested additional basis functions. For production calculations,
  #  uncomment them one after another (the most important basis functions are
  #  listed first).
  #
  #  Constructed for dimers: 1.6 A, 1.85 A, 2.5 A, 3.25 A, 4.25 A
  #
  ################################################################################
  #  "First tier" - improvements: -396.25 meV to -19.41 meV
       hydro 4 f 8
       hydro 3 d 2.7
       ionic 4 p auto
       hydro 5 g 11.6
       ionic 4 s auto
  #  "Second tier" - improvements: -16.30 meV to -2.03 meV
  #     hydro 3 d 4.4
  #     hydro 6 h 16
  #     hydro 4 f 9.4
  #     hydro 4 p 4.5
  #     hydro 1 s 0.5
  #  "Third tier" - improvements: -6.28 meV to -0.37 meV
  #     hydro 4 d 6.4
  #     hydro 4 f 10
  #     hydro 5 g 12
  #     hydro 2 p 1.7
  #     hydro 6 h 16.4
  #     hydro 4 s 3.8
  #  Further basis functions: -0.45 meV and smaller improvements
  #     hydro 3 d 8.8
  #     hydro 5 p 18
  #     hydro 4 f 22.4
  #     hydro 5 f 7.2  # -0.16 meV
  #     hydro 3 d 2.1  # -0.11 meV
  #     hydro 5 g 7.4  # -0.09 meV
  ################################################################################
  #
  #  FHI-aims code project
  #  Volker Blum, Fritz Haber Institute Berlin, 2009
  #
  #  Suggested "tight" defaults for O atom (to be pasted into control.in file)
  #
  ################################################################################
    species        O
  #     global species definitions
      nucleus             8
      mass                15.9994
  #
      l_hartree           6
  #
      cut_pot             4.0  2.0  1.0
      basis_dep_cutoff    1e-4
  #
      radial_base         36 7.0
      radial_multiplier   2
       angular_grids specified
        division   0.1817   50
        division   0.3417  110
        division   0.4949  194
        division   0.6251  302
        division   0.8014  434
  #      division   0.8507  590
  #      division   0.8762  770
  #      division   0.9023  974
  #      division   1.2339 1202
  #      outer_grid 974
        outer_grid  434
  ################################################################################
  #
  #  Definition of "minimal" basis
  #
  ################################################################################
  #     valence basis states
      valence      2  s   2.
      valence      2  p   4.
  #     ion occupancy
      ion_occ      2  s   1.
      ion_occ      2  p   3.
  ################################################################################
  #
  #  Suggested additional basis functions. For production calculations,
  #  uncomment them one after another (the most important basis functions are
  #  listed first).
  #
  #  Constructed for dimers: 1.0 A, 1.208 A, 1.5 A, 2.0 A, 3.0 A
  #
  ################################################################################
  #  "First tier" - improvements: -699.05 meV to -159.38 meV
       hydro 2 p 1.8
       hydro 3 d 7.6
       hydro 3 s 6.4
  #  "Second tier" - improvements: -49.91 meV to -5.39 meV
       hydro 4 f 11.6
       hydro 3 p 6.2
       hydro 3 d 5.6
       hydro 5 g 17.6
       hydro 1 s 0.75
  #  "Third tier" - improvements: -2.83 meV to -0.50 meV
  #     ionic 2 p auto
  #     hydro 4 f 10.8
  #     hydro 4 d 4.7
  #     hydro 2 s 6.8
  #  "Fourth tier" - improvements: -0.40 meV to -0.12 meV
  #     hydro 3 p 5
  #     hydro 3 s 3.3
  #     hydro 5 g 15.6
  #     hydro 4 f 17.6
  #     hydro 4 d 14
  # Further basis functions - -0.08 meV and below
  #     hydro 3 s 2.1
  #     hydro 4 d 11.6
  #     hydro 3 p 16
  #     hydro 2 s 17.2
  ################################################################################
  #
  # For methods that use the localized form of the "resolution of identity" for
  # the two-electron Coulomb operator (RI_method LVL), particularly Hartree-Fock and
  # hybrid density functional calculations, the highest accuracy can be obtained by
  # uncommenting the line beginning with "for_aux"  below, thus adding an extra g radial
  # function to the construction of the product basis set for the expansion.
  # See Ref. New J. Phys. 17, 093020 (2015) for more information, particularly Figs. 1 and 6.
  #
  ################################################################################
  #
  # for_aux hydro 5 g 6.0
  
  -----------------------------------------------------------------------
  Completed first pass over input file control.in .
  -----------------------------------------------------------------------
  
  
  -----------------------------------------------------------------------
  Parsing geometry.in (first pass over file, find array dimensions only).
  The contents of geometry.in will be repeated verbatim below
  unless switched off by setting 'verbatim_writeout .false.' .
  in the first line of geometry.in .
  -----------------------------------------------------------------------
  
  lattice_vector 4.594000 0.000000 0.000000
  lattice_vector 0.000000 4.594000 0.000000
  lattice_vector 0.000000 0.000000 2.958000
  
  atom_frac 0.000000 0.000000 0.000000 Ti
  atom_frac 0.500000 0.500000 0.500000 Ti
  atom_frac 0.305000 0.305000 0.000000 O
  atom_frac 0.695000 0.695000 0.000000 O
  atom_frac 0.305000 0.695000 0.500000 O
  atom_frac 0.695000 0.305000 0.500000 O
  
  -----------------------------------------------------------------------
  Completed first pass over input file geometry.in .
  -----------------------------------------------------------------------
  

  Basic array size parameters:
  | Number of species                 :        2
  | Number of atoms                   :        6
  | Number of lattice vectors         :        3
  | Max. basis fn. angular momentum   :        4
  | Max. atomic/ionic basis occupied n:        4
  | Max. number of basis fn. types    :        3
  | Max. radial fns per species/type  :        8
  | Max. logarithmic grid size        :     1383
  | Max. radial integration grid size :       97
  | Max. angular integration grid size:      434
  | Max. angular grid division number :        8
  | Radial grid for Hartree potential :     1383
  | Number of spin channels           :        1

------------------------------------------------------------
          Reading file control.in.
------------------------------------------------------------
  WARNING: The in-house xc SCAN implementation has been deprecated.
  WARNING: Using xc dfauto SCAN implementation instead.
  XC: Using the parameter-free meta-GGA functional SCAN.
  Scalar relativistic treatment of kinetic energy: on-site free-atom approximation to ZORA.
  Found k-point grid:         8         8         8
  Geometry relaxation: Modified BFGS - TRM (trust radius method) for lattice optimization.
  Convergence accuracy for geometry relaxation: Maximum force <   0.500000E-02 eV/A.
 
  Reading configuration options for species Ti                  .
  | Found nuclear charge :  22.0000
  | Found atomic mass :    47.8670000000000      amu
  | Found l_max for Hartree potential  :   6
  | Found cutoff potl. onset [A], width [A], scale factor :    4.00000    2.00000    1.00000
  | Threshold for basis-dependent cutoff potential is   0.100000E-03
  | Found data for basic radial integration grid :    48 points, outermost radius =    7.000 A
  | Found multiplier for basic radial grid :   2
  | Found angular grid specification: user-specified.
  | Specified grid contains     6 separate shells.
  | Check grid settings after all constraints further below.
  | Found free-atom valence shell :  4 s   2.000
  | Found free-atom valence shell :  3 p   6.000
  | Found free-atom valence shell :  3 d   2.000
  | Found free-ion valence shell :  4 s   1.000
  | Found free-ion valence shell :  3 p   6.000
  | Found free-ion valence shell :  3 d   1.000
  | Found hydrogenic basis function :  4 f   8.000
  | Found hydrogenic basis function :  3 d   2.700
  | Found ionic basis function :  4 p , default cutoff radius.
  | Found hydrogenic basis function :  5 g  11.600
  | Found ionic basis function :  4 s , default cutoff radius.
 | Encountered keyword species, ending the description of species Ti                  .
  Species Ti                  : Missing cutoff potential type.
  Defaulting to exp(1/x)/(1-x)^2 type cutoff potential.
  Species Ti: No 'logarithmic' tag. Using default grid for free atom:
  | Default logarithmic grid data [bohr] : 0.1000E-03 0.1000E+03 0.1012E+01
  | Will include ionic basis functions of  2.0-fold positive Ti                   ion.
  Species Ti: On-site basis accuracy parameter (for Gram-Schmidt orthonormalisation) not specified.
  Using default value basis_acc =  0.1000000E-03.
  Species Ti                  : Using default innermost maximum threshold i_radial=  2 for radial functions.
  Species Ti                  : Default cutoff onset for free atom density etc. : 0.40000000E+01 AA.
  Species Ti                  : Basic radial grid will be enhanced according to radial_multiplier =   2, to contain    97 grid points.
 
  Reading configuration options for species O                   .
  | Found nuclear charge :   8.0000
  | Found atomic mass :    15.9994000000000      amu
  | Found l_max for Hartree potential  :   6
  | Found cutoff potl. onset [A], width [A], scale factor :    4.00000    2.00000    1.00000
  | Threshold for basis-dependent cutoff potential is   0.100000E-03
  | Found data for basic radial integration grid :    36 points, outermost radius =    7.000 A
  | Found multiplier for basic radial grid :   2
  | Found angular grid specification: user-specified.
  | Specified grid contains     6 separate shells.
  | Check grid settings after all constraints further below.
  | Found free-atom valence shell :  2 s   2.000
  | Found free-atom valence shell :  2 p   4.000
  | Found free-ion valence shell :  2 s   1.000
  | Found free-ion valence shell :  2 p   3.000
  | Found hydrogenic basis function :  2 p   1.800
  | Found hydrogenic basis function :  3 d   7.600
  | Found hydrogenic basis function :  3 s   6.400
  | Found hydrogenic basis function :  4 f  11.600
  | Found hydrogenic basis function :  3 p   6.200
  | Found hydrogenic basis function :  3 d   5.600
  | Found hydrogenic basis function :  5 g  17.600
  | Found hydrogenic basis function :  1 s   0.750
  Species O                   : Missing cutoff potential type.
  Defaulting to exp(1/x)/(1-x)^2 type cutoff potential.
  Species O : No 'logarithmic' tag. Using default grid for free atom:
  | Default logarithmic grid data [bohr] : 0.1000E-03 0.1000E+03 0.1012E+01
  Species O : On-site basis accuracy parameter (for Gram-Schmidt orthonormalisation) not specified.
  Using default value basis_acc =  0.1000000E-03.
  Species O                   : Using default innermost maximum threshold i_radial=  2 for radial functions.
  Species O                   : Default cutoff onset for free atom density etc. : 0.40000000E+01 AA.
  Species O                   : Basic radial grid will be enhanced according to radial_multiplier =   2, to contain    73 grid points.
 
  Finished reading input file 'control.in'.
 
------------------------------------------------------------


------------------------------------------------------------
          Reading geometry description geometry.in.
------------------------------------------------------------
  | The smallest distance between any two atoms is         1.26689494 AA.
  | The first atom of this pair is atom number                      2 .
  | The second atom of this pair is atom number                     6 .
  | Wigner-Seitz cell of the first atom image           0     1     0 .
  | (The Wigner-Seitz cell of the second atom is 0 0 0  by definition.)

  Symmetry information by spglib:
  | Precision set to  0.1E-04
  | Number of Operations  : 8
  | Space group           : 65
  | International         : Cmmm
  | Schoenflies           : D2h^19
  Input structure read successfully.
  The structure contains        6 atoms,  and a total of         76.000 electrons.

  Input geometry:
  | Unit cell:
  |        4.59400000        0.00000000        0.00000000
  |        0.00000000        4.59400000        0.00000000
  |        0.00000000        0.00000000        2.95800000
  | Atomic structure:
  |       Atom                x [A]            y [A]            z [A]
  |    1: Species Ti            0.00000000        0.00000000        0.00000000
  |    2: Species Ti            2.29700000        2.29700000        1.47900000
  |    3: Species O             1.40117000        1.40117000        0.00000000
  |    4: Species O             3.19283000        3.19283000        0.00000000
  |    5: Species O             1.40117000        3.19283000        1.47900000
  |    6: Species O             3.19283000        1.40117000        1.47900000

  Lattice parameters for 3D lattice (in Angstroms) :     4.594000    4.594000    2.958000
  Angle(s) between unit vectors (in degrees)       :    90.000000   90.000000   90.000000


  Quantities derived from the lattice vectors (in Angstrom^-1):
  | Reciprocal lattice vector 1:  1.367694  0.000000  0.000000
  | Reciprocal lattice vector 2:  0.000000  1.367694  0.000000
  | Reciprocal lattice vector 3:  0.000000  0.000000  2.124133
  | Unit cell volume                               :   0.624281E+02  Angstrom^3

  Fractional coordinates:
                         L1                L2                L3
       atom_frac         0.00000000        0.00000000        0.00000000  Ti
       atom_frac         0.50000000        0.50000000        0.50000000  Ti
       atom_frac         0.30500000        0.30500000        0.00000000  O
       atom_frac         0.69500000        0.69500000        0.00000000  O
       atom_frac         0.30500000        0.69500000        0.50000000  O
       atom_frac         0.69500000        0.30500000        0.50000000  O

  Slab Identifier: This seems to be a bulk system.
 
  Finished reading input file 'geometry.in'.
 

 
  Consistency checks for stacksize environment parameter are next.
 
  | Maximum stacksize for task 0: unlimited
  | Maximum stacksize for task 1: unlimited
  | Maximum stacksize for task 2: unlimited
  | Maximum stacksize for task 3: unlimited
  | Maximum stacksize for task 4: unlimited
  | Maximum stacksize for task 5: unlimited
  | Maximum stacksize for task 6: unlimited
  | Maximum stacksize for task 7: unlimited
  | Maximum stacksize for task 8: unlimited
  | Maximum stacksize for task 9: unlimited
  | Maximum stacksize for task 10: unlimited
  | Maximum stacksize for task 11: unlimited
  | Maximum stacksize for task 12: unlimited
  | Maximum stacksize for task 13: unlimited
  | Maximum stacksize for task 14: unlimited
  | Maximum stacksize for task 15: unlimited
  | Maximum stacksize for task 16: unlimited
  | Maximum stacksize for task 17: unlimited
  | Maximum stacksize for task 18: unlimited
  | Maximum stacksize for task 19: unlimited
  | Maximum stacksize for task 20: unlimited
  | Maximum stacksize for task 21: unlimited
  | Maximum stacksize for task 22: unlimited
  | Maximum stacksize for task 23: unlimited
  | Current stacksize for task 0: unlimited
  | Current stacksize for task 1: unlimited
  | Current stacksize for task 2: unlimited
  | Current stacksize for task 3: unlimited
  | Current stacksize for task 4: unlimited
  | Current stacksize for task 5: unlimited
  | Current stacksize for task 6: unlimited
  | Current stacksize for task 7: unlimited
  | Current stacksize for task 8: unlimited
  | Current stacksize for task 9: unlimited
  | Current stacksize for task 10: unlimited
  | Current stacksize for task 11: unlimited
  | Current stacksize for task 12: unlimited
  | Current stacksize for task 13: unlimited
  | Current stacksize for task 14: unlimited
  | Current stacksize for task 15: unlimited
  | Current stacksize for task 16: unlimited
  | Current stacksize for task 17: unlimited
  | Current stacksize for task 18: unlimited
  | Current stacksize for task 19: unlimited
  | Current stacksize for task 20: unlimited
  | Current stacksize for task 21: unlimited
  | Current stacksize for task 22: unlimited
  | Current stacksize for task 23: unlimited
 
  Consistency checks for the contents of control.in are next.
 
  MPI_IN_PLACE appears to work with this MPI implementation.
  | Keeping use_mpi_in_place .true. (see manual).
  Target number of points in a grid batch is not set. Defaulting to  100
  Method for grid partitioning is not set. Defaulting to parallel hash+maxmin partitioning.
  Batch size limit is not set. Defaulting to    200
  By default, will store active basis functions for each batch.
  If in need of memory, prune_basis_once .false. can be used to disable this option.
  communication_type for Hartree potential was not specified.
  Defaulting to calc_hartree .
  Defaulting to Pulay charge density mixer.
  Pulay mixer: Number of relevant iterations not set.
  Defaulting to    8 iterations.
  Pulay mixer: Number of initial linear mixing iterations not set.
  Defaulting to    0 iterations.
  Work space size for distributed Hartree potential not set.
  Defaulting to   0.200000E+03 MB.
  Mixing parameter for charge density mixing has not been set.
  Using default: charge_mix_param =     0.0500.
  The mixing parameter will be adjusted in iteration number     2 of each s.c.f. cycle (i.e., each geometry step).
  Algorithm-dependent basis array size parameters:
  | n_max_pulay                         :        8
  Maximum number of self-consistency iterations not provided.
  Presetting  1000 iterations.
  Presetting      1001 iterations before the initial mixing cycle
  is restarted anyway using the sc_init_iter criterion / keyword.
  Presetting a factor      1.000 between actual scf density residual
  and density convergence criterion sc_accuracy_rho below which sc_init_iter
  takes no effect.
 * No s.c.f. convergence criteria (sc_accuracy_*) were provided in control.in.
 * The run will proceed with a reasonable default guess, but please check whether.
 * the s.c.f. cycles seem to take too much or too little time.
  No maximum number of relaxation steps, defaulting to     1000
  Default initial Hessian is Lindh matrix (thres = 15.00) plus  0.200000E+01 eV/A^2 times unity.
  No maximum energy tolerance for TRM/BFGS moves, defaulting to   0.150000E-02
  Maximum energy tolerance by which TRM/BFGS trajectory may increase over multiple steps:   0.300000E-02
  No harmonic length scale. Defaulting to   0.250000E-01 A.
  No trust radius initializer. Defaulting to   0.200000E+00 A.
  Unit cell relaxation: Unit cell will be relaxed fully.
  Unit cell relaxation: Analytical stress will be used.
  Analytical stress will be computed.
  Analytical stress calculation: Only the upper triangle is calculated.
                                 Final output is symmetrized.
  Analytical stress calculation: scf convergence accuracy of stress not set.
                                 Analytical stress self-consistency will not be checked explicitly.
                                 Be sure to set other criteria like sc_accuracy_rho tight enough.
  Forces evaluation will include force correction term due to incomplete self-consistency (default).
 * Notice: The s.c.f. convergence criterion sc_accuracy_rho was not provided.
 * We used to stop in this case, and ask the user to provide reasonable
 * scf convergence criteria. However, this led some users to employ criteria
 * that led to extremely long run times, e.g., for simple relaxation.
 * We now preset a default value for sc_accuracy_rho if it is not set.
 * You may still wish to check if this setting is too tight or too loose for your needs.
 * Based on n_atoms and forces and force-correction status, FHI-aims chose sc_accuracy_rho =  0.100000E-05 .
  Force calculation: scf convergence accuracy of forces not set.
  Defaulting to 'sc_accuracy_forces not_checked'.
  Handling of forces: Unphysical translation and rotation will be removed from forces.
  No accuracy limit for integral partition fn. given. Defaulting to  0.1000E-14.
  No threshold value for u(r) in integrations given. Defaulting to  0.1000E-05.
  No occupation type (smearing scheme) given. Defaulting to Gaussian broadening, width =  0.1000E-01 eV.
  The width will be adjusted in iteration number     2 of each s.c.f. cycle (i.e., each geometry step).
  No accuracy for occupation numbers given. Defaulting to  0.1000E-12.
  No threshold value for occupation numbers given. Defaulting to  0.0000E+00.
  No accuracy for fermi level given. Defaulting to  0.1000E-19.
  Maximum # of iterations to find E_F not set. Defaulting to  200.
  Preferred method for the eigenvalue solver ('KS_method') not specified in 'control.in'.
  Defaulting to serial version, LAPACK (via ELSI), since more k-points than CPUs available.
  Will not use alltoall communication since running on < 1024 CPUs.
  Threshold for basis singularities not set.
  Default threshold for basis singularities:  0.1000E-04
  partition_type (choice of integration weights) for integrals was not specified.
  | Using a version of the partition function of Stratmann and coworkers ('stratmann_sparse').
  | At each grid point, the set of atoms used to build the partition table is smoothly restricted to
  | only those atoms whose free-atom density would be non-zero at that grid point.
  Partitioning for Hartree potential was not defined. Using partition_type for integrals.
  | Adjusted default value of keyword multip_moments_threshold to:       0.10000000E-11
  | This value may affect high angular momentum components of the Hartree potential in periodic systems.
  Spin handling was not defined in control.in. Defaulting to unpolarized case.
  No q(lm)/r^(l+1) cutoff set for long-range Hartree potential.
  | Using default value of  0.100000E-09 .
  | Verify using the multipole_threshold keyword.
  Defaulting to new monopole extrapolation.
  Density update method: automatic selection selected.
  Using density matrix based charge density update.
  Using density matrix based charge density update.
  Using packed matrix style: index .
  Geometry relaxation: A file "geometry.in.next_step" is written out by default after each step.
  | This file contains the geometry of the current relaxation step as well as
  | the current Hessian matrix needed to restart the relaxation algorithm.
  | If you do not want part or all of this information, use the keywords
  | "write_restart_geometry" or "hessian_to_restart_geometry" to switch the output off.
  Defaulting to use time-reversal symmetry for k-point grid.
  Charge integration errors on the 3D integration grid will be compensated
  by explicit normalization and distribution of residual charges.
  Use the "compensate_multipole_errors" flag to change this behaviour.
  Set 'collect_eigenvectors' to be '.true.' for all serial calculations. This is mandatory.
  Set 'collect_eigenvectors' to be '.true.' for KS_method lapack_fast and serial.
  Found potential conflicts with setting 'use_local_index' for this calculation. Will not set it.
 
  Consistency checks for the contents of geometry.in are next.
 

  Range separation radius for Ewald summation (hartree_convergence_parameter):      3.02465203 bohr.
  Number of empty states per atom not set in control.in - providing a guess from actual geometry.
  | Total number of empty states used during s.c.f. cycle:       23
  If you use a very high smearing, use empty_states (per atom!) in control.in to increase this value.

  Structure-dependent array size parameters: 
  | Maximum number of distinct radial functions  :       23
  | Maximum number of basis functions            :      236
  | Number of Kohn-Sham states (occupied + empty):       61
------------------------------------------------------------
  After read_input_data [GB]:    525.65

  Performing system and environment tests:
  *** Environment variable OMP_NUM_THREADS is not set
  *** For performance reasons you might want to set it to 1
  | Checking for ScaLAPACK...
  | Testing pdtran()...
  | All pdtran() tests passed.
  After prepare_system [GB]:    525.50

------------------------------------------------------------
          Preparing all fixed parts of the calculation.
------------------------------------------------------------
  Determining machine precision:
    2.225073858507201E-308
  Setting up grids for atomic and cluster calculations.

  Creating wave function, potential, and density for free atoms.
  Runtime choices for atomic solver:
  | atomic solver xc        : PW-LDA
  | compute density gradient: 1
  | compute kinetic density : T

  Species: Ti

  List of occupied orbitals and eigenvalues:
    n    l              occ      energy [Ha]    energy [eV]
    1    0           2.0000      -179.494891     -4884.3045
    2    0           2.0000       -19.686176      -535.6881
    3    0           2.0000        -2.282180       -62.1013
    4    0           2.0000        -0.163864        -4.4590
    2    1           6.0000       -16.319592      -444.0787
    3    1           6.0000        -1.419321       -38.6217
    3    2           2.0000        -0.158535        -4.3140


  Species: O

  List of occupied orbitals and eigenvalues:
    n    l              occ      energy [Ha]    energy [eV]
    1    0           2.0000       -18.786458      -511.2055
    2    0           2.0000        -0.872894       -23.7527
    2    1           4.0000        -0.337952        -9.1962


  Adding cutoff potential to free-atom effective potential.
  Creating fixed part of basis set: Ionic, confined, hydrogenic.
 
  Ti                   ion:

  List of free ionic orbitals and eigenvalues:
    n    l      energy [Ha]    energy [eV]
    1    0      -180.346512     -4907.4783
    2    0       -20.558929      -559.4369
    3    0        -3.105104       -84.4942
    4    0        -0.707661       -19.2564
    2    1       -17.189957      -467.7625
    3    1        -2.231709       -60.7279
    3    2        -0.922254       -25.0958


  List of ionic basis orbitals and eigenvalues:
    n    l      energy [Ha]    energy [eV]    outer radius [A]
    4    1        -0.527667       -14.3585       5.449321
    4    0        -0.707634       -19.2557       5.383109

 
  Ti                   hydrogenic:
 
  List of hydrogenic basis orbitals: 
    n    l      effective z      eigenvalue [eV]  inner max. [A]     outer max. [A]     outer radius [A]   
    4    3         8.000000       -54.4226           1.059019           1.059019           4.648601
    3    2         2.700000       -10.9576           1.748166           1.748166           5.449321
    5    4        11.600000       -73.2312           1.139618           1.139618           4.536321
 
 
  O                    hydrogenic:
 
  List of hydrogenic basis orbitals: 
    n    l      effective z      eigenvalue [eV]  inner max. [A]     outer max. [A]     outer radius [A]   
    2    1         1.800000       -11.0118           1.178562           1.178562           5.432602
    3    2         7.600000       -87.3182           0.624125           0.624125           3.541477
    3    0         6.400000       -61.9209           0.061167           1.081902           4.306578
    4    3        11.600000      -114.4238           0.731631           0.731631           3.585037
    3    1         6.200000       -58.1113           0.255680           1.030270           4.306578
    3    2         5.600000       -47.4081           0.847233           0.847233           4.413171
    5    4        17.600000      -168.5799           0.749740           0.749740           3.372465
    1    0         0.750000        -7.6499           0.705284           0.705284           5.366593
 
  Creating atomic-like basis functions for current effective potential.

  Species Ti                  :

  List of atomic basis orbitals and eigenvalues:
    n    l      energy [Ha]    energy [eV]    outer radius [A]
    1    0      -179.494891     -4884.3045       0.490254
    2    0       -19.686176      -535.6881       1.491292
    3    0        -2.282180       -62.1013       4.215492
    4    0        -0.163864        -4.4590       5.449321
    2    1       -16.319592      -444.0787       1.585290
    3    1        -1.419321       -38.6217       4.822253
    3    2        -0.158535        -4.3140       5.383109


  Species O                   :

  List of atomic basis orbitals and eigenvalues:
    n    l      energy [Ha]    energy [eV]    outer radius [A]
    1    0       -18.786458      -511.2055       1.433179
    2    0        -0.872894       -23.7527       5.048385
    2    1        -0.337952        -9.1962       5.301386

  Assembling full basis from fixed parts.
  | Species Ti :   atomic orbital   1 s accepted.
  | Species Ti :   atomic orbital   2 s accepted.
  | Species Ti :   atomic orbital   3 s accepted.
  | Species Ti :    ionic orbital   4 s accepted.
  | Species Ti :   atomic orbital   4 s accepted.
  | Species Ti :   atomic orbital   2 p accepted.
  | Species Ti :   atomic orbital   3 p accepted.
  | Species Ti :    ionic orbital   4 p accepted.
  | Species Ti :   atomic orbital   3 d accepted.
  | Species Ti :    hydro orbital   3 d accepted.
  | Species Ti :    hydro orbital   4 f accepted.
  | Species Ti :    hydro orbital   5 g accepted.
  | Species O :   atomic orbital   1 s accepted.
  | Species O :    hydro orbital   3 s accepted.
  | Species O :   atomic orbital   2 s accepted.
  | Species O :    hydro orbital   1 s accepted.
  | Species O :    hydro orbital   3 p accepted.
  | Species O :   atomic orbital   2 p accepted.
  | Species O :    hydro orbital   2 p accepted.
  | Species O :    hydro orbital   3 d accepted.
  | Species O :    hydro orbital   3 d accepted.
  | Species O :    hydro orbital   4 f accepted.
  | Species O :    hydro orbital   5 g accepted.
 
  Basis size parameters after reduction:
  | Total number of radial functions:       23
  | Total number of basis functions :      236
 
  Per-task memory consumption for arrays in subroutine allocate_ext:
  |           8.149848MB.
  Testing on-site integration grid accuracy.
  |  Species  Function  <phi|h_atom|phi> (log., in eV)  <phi|h_atom|phi> (rad., in eV)
           1        1              -4884.3045041830              -4884.3043561282
           1        2               -535.6881163770               -535.6881136617
           1        3                -62.1012734904                -62.1012731072
           1        4                 -3.6444450756                 -3.6444386696
           1        5                  4.5284932272                  4.5294100343
           1        6               -444.0786921184               -444.0786915427
           1        7                -38.6216821055                -38.6216819073
           1        8                 -0.0636885234                 -0.0636491586
           1        9                 -4.3143777489                 -4.3143706431
           1       10                  5.2078361839                  5.2081372407
           1       11                 27.2784668371                 27.2784671939
           1       12                 50.9946777645                 50.9946775211
           2       13               -511.2055257460               -511.2055212647
           2       14                 14.8909316291                 14.8909245888
           2       15                -21.2761098745                -21.2761142506
           2       16                 14.4902594017                 14.4902930901
           2       17                 20.4755804255                 20.4755808251
           2       18                 -2.7025186682                 -2.7025193111
           2       19                 13.8430854879                 13.8430486164
           2       20                 45.7917095645                 45.7917095443
           2       21                 52.0376190406                 52.0376206035
           2       22                 85.3009901325                 85.3009901592
           2       23                141.9718674916                141.9718674951

  Preparing densities etc. for the partition functions (integrals / Hartree potential).

  Preparations completed.
  max(cpu_time)          :      0.431 s.
  Wall clock time (cpu1) :      0.424 s.
------------------------------------------------------------
  After prepare_scf [GB]:    524.97

  Initializing index lists of integration centers etc. from given atomic structure:
  Mapping all atomic coordinates to central unit cell.

  Initializing the k-points
  Using symmetry for reducing the k-points
  | k-points reduced from:      512 to      260
  | Number of k-points                             :       260
  The eigenvectors in the calculations are COMPLEX.
  | K-points in task   0:        10
  | K-points in task   1:        11
  | K-points in task   2:        11
  | K-points in task   3:        11
  | K-points in task   4:        11
  | K-points in task   5:        11
  | K-points in task   6:        11
  | K-points in task   7:        11
  | K-points in task   8:        11
  | K-points in task   9:        11
  | K-points in task  10:        11
  | K-points in task  11:        11
  | K-points in task  12:        11
  | K-points in task  13:        11
  | K-points in task  14:        11
  | K-points in task  15:        11
  | K-points in task  16:        11
  | K-points in task  17:        11
  | K-points in task  18:        11
  | K-points in task  19:        11
  | K-points in task  20:        11
  | K-points in task  21:        10
  | K-points in task  22:        10
  | K-points in task  23:        10
  | Number of basis functions in the Hamiltonian integrals :      6664
  | Number of basis functions in a single unit cell        :       236
  | Number of centers in hartree potential         :      1445
  | Number of centers in hartree multipole         :      1220
  | Number of centers in electron density summation:       885
  | Number of centers in basis integrals           :       965
  | Number of centers in integrals                 :       315
  | Number of centers in hamiltonian               :       907
  | Consuming        885 KiB for k_phase.
  | Number of super-cells (origin) [n_cells]                     :        1053
  | Number of super-cells (after PM_index) [n_cells]             :         218
  | Number of super-cells in hamiltonian [n_cells_in_hamiltonian]:         218
  | Size of matrix packed + index [n_hamiltonian_matrix_size] :     1378789
  After initialize_bc_dependent_lists [GB]:    524.72

------------------------------------------------------------
          Begin self-consistency loop: Initialization.

          Date     :  20240709, Time     :  135347.627
------------------------------------------------------------

  Initializing relaxation algorithms.
  Finished initialization of distributed Hessian storage.
  | Global dimension:        27
  | BLACS block size:         2
  | Number of workers:       14

  Available memory per node after initialize_hartree_non_periodic_ewald [GB]:    524.72
  | Estimated reciprocal-space cutoff momentum G_max:         3.29309518 bohr^-1 .
  | Reciprocal lattice points for long-range Hartree potential:     264
  Available memory per node after initialize_recip_hartree_potential [GB]:    524.71
  Available memory per node after initialize_scalapack [GB]:    524.71
  Available memory per node after aims_elsi_init_scf [GB]:    524.71
  Available memory per node after initialize_fixed_grids [GB]:    524.71
  Partitioning the integration grid into batches with parallel hashing+maxmin method.
  | Number of batches:     1673
  | Maximal batch size:     113
  | Minimal batch size:      51
  | Average batch size:      72.380
  | Standard deviation of batch sizes:      15.544

  Integration load balanced across    24 MPI tasks.
  Work distribution over tasks is as follows:
  Task     0 has       5086 integration points.
  Task     1 has       5050 integration points.
  Task     2 has       5014 integration points.
  Task     3 has       5003 integration points.
  Task     4 has       5049 integration points.
  Task     5 has       4998 integration points.
  Task     6 has       5003 integration points.
  Task     7 has       5063 integration points.
  Task     8 has       5053 integration points.
  Task     9 has       5080 integration points.
  Task    10 has       5009 integration points.
  Task    11 has       5022 integration points.
  Task    12 has       5053 integration points.
  Task    13 has       5067 integration points.
  Task    14 has       5065 integration points.
  Task    15 has       5080 integration points.
  Task    16 has       5061 integration points.
  Task    17 has       5073 integration points.
  Task    18 has       5041 integration points.
  Task    19 has       5061 integration points.
  Task    20 has       5073 integration points.
  Task    21 has       5007 integration points.
  Task    22 has       5066 integration points.
  Task    23 has       5015 integration points.
  Available memory per node after partition_grid [GB]:    524.71
  Initializing partition tables, free-atom densities, potentials, etc. across the integration grid (initialize_grid_storage).
  | initialize_grid_storage: Actual outermost partition radius vs. multipole_radius_free
  | (-- VB: in principle, multipole_radius_free should be larger, hence this output)
  | Species        1: Confinement radius =              6.000000000000000 AA, multipole_radius_free =              6.009195547060584 AA.
  | Species        1: outer_partition_radius set to              6.009195547060584 AA .
  | Species        2: Confinement radius =              6.000000000000000 AA, multipole_radius_free =              6.064445521808699 AA.
  | Species        2: outer_partition_radius set to              6.064445521808699 AA .
  | The sparse table of interatomic distances needs       8143.06 kbyte instead of      7449.80 kbyte of memory.
  | Using the partition_type stratmann_smoother will reduce your memory usage.
  | Net number of integration points:   121092
  | of which are non-zero points    :    85098
  | Numerical average free-atom electrostatic potential    :    -18.64782027 eV
  Available memory per node after initialize_grid_storage_p1 [GB]:    524.71
  Renormalizing the initial density to the exact electron count on the 3D integration grid.
  | Initial density: Formal number of electrons (from input files) :      76.0000000000
  | Integrated number of electrons on 3D grid     :      75.9996093933
  | Charge integration error                      :      -0.0003906067
  | Normalization factor for density and gradient :       1.0000051396
  Renormalizing the free-atom superposition density to the exact electron count on the 3D integration grid.
  | Formal number of electrons (from input files) :      76.0000000000
  | Integrated number of electrons on 3D grid     :      75.9996093933
  | Charge integration error                      :      -0.0003906067
  | Normalization factor for density and gradient :       1.0000051396
  Obtaining max. number of non-zero basis functions in each batch (get_n_compute_maxes).
  | Maximal number of non-zero basis functions:     1861 in task     0
  | Maximal number of non-zero basis functions:     1866 in task     1
  | Maximal number of non-zero basis functions:     1845 in task     2
  | Maximal number of non-zero basis functions:     1918 in task     3
  | Maximal number of non-zero basis functions:     1903 in task     4
  | Maximal number of non-zero basis functions:     1865 in task     5
  | Maximal number of non-zero basis functions:     1905 in task     6
  | Maximal number of non-zero basis functions:     1854 in task     7
  | Maximal number of non-zero basis functions:     1894 in task     8
  | Maximal number of non-zero basis functions:     1924 in task     9
  | Maximal number of non-zero basis functions:     1890 in task    10
  | Maximal number of non-zero basis functions:     1866 in task    11
  | Maximal number of non-zero basis functions:     1854 in task    12
  | Maximal number of non-zero basis functions:     1865 in task    13
  | Maximal number of non-zero basis functions:     1895 in task    14
  | Maximal number of non-zero basis functions:     1879 in task    15
  | Maximal number of non-zero basis functions:     1887 in task    16
  | Maximal number of non-zero basis functions:     1905 in task    17
  | Maximal number of non-zero basis functions:     1875 in task    18
  | Maximal number of non-zero basis functions:     1912 in task    19
  | Maximal number of non-zero basis functions:     1910 in task    20
  | Maximal number of non-zero basis functions:     1898 in task    21
  | Maximal number of non-zero basis functions:     1897 in task    22
  | Maximal number of non-zero basis functions:     1867 in task    23
  Available memory per node after get_n_compute_maxes_p1 [GB]:    524.68
  Allocating        2.197 MB for KS_eigenvector_complex
  Available memory per node after allocate_matrices [GB]:    524.63
  Available memory per node after init_comm_sparse_local_matrix_scalapack [GB]:    524.63
  Integrating Hamiltonian matrix: batch-based integration.
  Time summed over all CPUs for integration: real work      108.198 s, elapsed      229.349 s => Consider using load balancing!
  Available memory per node after integrate hamiltonian matrix [GB]:    523.31
  Integrating overlap matrix.
  Time summed over all CPUs for integration: real work       85.090 s, elapsed      177.093 s
  Available memory per node after integrate ovlp matrix [GB]:    522.96
  Available memory per node after ASI_callbacks invoke [GB]:    522.96
  Available memory per node after save_overlap_scalapack [GB]:    522.96

  Updating Kohn-Sham eigenvalues and eigenvectors using ELSI and the (modified) LAPACK eigensolver.
  Singularity check in k-point 24, task 0 (analysis for other k-points/tasks may follow below):
  Overlap matrix is not singular
  | Lowest and highest eigenvalues :  0.7400E-04,  0.1433E+02
  Finished singularity check of overlap matrix
  | Time :     0.009 s
  Starting LAPACK eigensolver
  Finished Cholesky decomposition
  | Time :     0.002 s
  Finished transformation to standard eigenproblem
  | Time :     0.003 s
  Finished solving standard eigenproblem
  | Time :     0.010 s
  Finished back-transformation of eigenvectors
  | Time :     0.000 s

  Obtaining occupation numbers and electronic chemical potential using ELSI.
  | Note that, for insulating systems, the printed 'chemical potential' value is not uniquely defined.
  | It can be anywhere in the energy gap, as long as it correctly separates occupied and unoccupied states.
  | In systems with a gap, the physically relevant chemical potential is the VBM or HOMO.

  | Chemical potential (Fermi level):    -8.02456622 eV
  Available memory per node after advance_KS_solution [GB]:    522.95
  Writing Kohn-Sham eigenvalues.
  K-point:       1 at    0.000000    0.000000    0.000000 (in units of recip. lattice)

  State    Occupation    Eigenvalue [Ha]    Eigenvalue [eV]
      1       2.00000        -179.560885        -4886.10028
      2       2.00000        -179.505181        -4884.58449
      3       2.00000         -19.758977         -537.66913
      4       2.00000         -19.697200         -535.98809
      5       2.00000         -19.071398         -518.95913
      6       2.00000         -19.071390         -518.95893
      7       2.00000         -18.918903         -514.80955
      8       2.00000         -18.918903         -514.80955
      9       2.00000         -16.396634         -446.17512
     10       2.00000         -16.388582         -445.95601
     11       2.00000         -16.388223         -445.94624
     12       2.00000         -16.330575         -444.37756
     13       2.00000         -16.330546         -444.37676
     14       2.00000         -16.330320         -444.37063
     15       2.00000          -2.483111          -67.56890
     16       2.00000          -2.303825          -62.69028
     17       2.00000          -1.878254          -51.10989
     18       2.00000          -1.551382          -42.21526
     19       2.00000          -1.547690          -42.11480
     20       2.00000          -1.455357          -39.60227
     21       2.00000          -1.440897          -39.20879
     22       2.00000          -1.437505          -39.11651
     23       2.00000          -1.164763          -31.69482
     24       2.00000          -1.083940          -29.49552
     25       2.00000          -1.027504          -27.95979
     26       2.00000          -0.936143          -25.47376
     27       2.00000          -0.743771          -20.23904
     28       2.00000          -0.712865          -19.39805
     29       2.00000          -0.704154          -19.16101
     30       2.00000          -0.613274          -16.68804
     31       2.00000          -0.573591          -15.60819
     32       2.00000          -0.572823          -15.58730
     33       2.00000          -0.564099          -15.34991
     34       2.00000          -0.497210          -13.52978
     35       2.00000          -0.496879          -13.52076
     36       2.00000          -0.488935          -13.30459
     37       2.00000          -0.485444          -13.20960
     38       2.00000          -0.297101           -8.08452
     39       0.00000          -0.282984           -7.70040
     40       0.00000          -0.254567           -6.92712
     41       0.00000          -0.199344           -5.42444
     42       0.00000          -0.181529           -4.93966
     43       0.00000          -0.176424           -4.80074
     44       0.00000          -0.171311           -4.66160
     45       0.00000          -0.104444           -2.84206
     46       0.00000          -0.099680           -2.71244
     47       0.00000          -0.088797           -2.41630
     48       0.00000          -0.073893           -2.01072
     49       0.00000           0.037296            1.01487
     50       0.00000           0.043901            1.19461
     51       0.00000           0.052122            1.41830
     52       0.00000           0.119092            3.24065
     53       0.00000           0.193283            5.25950
     54       0.00000           0.240436            6.54261
     55       0.00000           0.255368            6.94892
     56       0.00000           0.322216            8.76796
     57       0.00000           0.359945            9.79461
     58       0.00000           0.385252           10.48323
     59       0.00000           0.528487           14.38085
     60       0.00000           0.555238           15.10878
     61       0.00000           0.631691           17.18919

  What follows are estimated values for band gap, HOMO, LUMO, etc.
  | They are estimated on a discrete k-point grid and not necessarily exact.
  | For converged numbers, create a DOS and/or band structure plot on a denser k-grid.

  Highest occupied state (VBM) at     -8.08451981 eV (relative to internal zero)
  | Occupation number:      2.00000000
  | K-point:       1 at    0.000000    0.000000    0.000000 (in units of recip. lattice)

  Lowest unoccupied state (CBM) at    -7.92858821 eV (relative to internal zero)
  | Occupation number:      0.00000000
  | K-point:     202 at    0.500000    0.500000    0.000000 (in units of recip. lattice)

  ESTIMATED overall HOMO-LUMO gap:      0.15593161 eV between HOMO at k-point 1 and LUMO at k-point 202
  | This appears to be an indirect band gap.
  | Smallest direct gap :      0.21662546 eV for k_point 202 at    0.500000    0.500000    0.000000 (in units of recip. lattice)
  The gap value is rather small. This may be a metal or a small-gap semiconductor.
  Since we use a finite k-point grid, a DOS and/or band structure plot is required
  for an unambiguous assignment.
  Calculating total energy contributions from superposition of free atom densities.

  Total energy components:
  | Sum of eigenvalues            :       -1195.57000120 Ha      -32533.11499935 eV
  | XC energy correction          :        -113.14338615 Ha       -3078.78818410 eV
  | XC potential correction       :         149.53279865 Ha        4068.99447944 eV
  | Free-atom electrostatic energy:        -848.83767160 Ha      -23098.04825987 eV
  | Hartree energy correction     :           0.00000000 Ha           0.00000000 eV
  | Entropy correction            :          -0.00000000 Ha          -0.00000000 eV
  | ---------------------------
  | Total energy                  :       -2008.01826029 Ha      -54640.95696387 eV
  | Total energy, T -> 0          :       -2008.01826029 Ha      -54640.95696387 eV  <-- do not rely on this value for anything but (periodic) metals
  | Electronic free energy        :       -2008.01826029 Ha      -54640.95696387 eV

  Derived energy quantities:
  | Kinetic energy                :        2021.53935399 Ha       55008.88464338 eV
  | Electrostatic energy          :       -3916.41422814 Ha     -106571.05342315 eV
  | Energy correction for multipole
  | error in Hartree potential    :           0.00000000 Ha           0.00000000 eV
  | Sum of eigenvalues per atom                           :       -5422.18583323 eV
  | Total energy (T->0) per atom                          :       -9106.82616065 eV  <-- do not rely on this value for anything but (periodic) metals
  | Electronic free energy per atom                       :       -9106.82616065 eV
  Initialize hartree_potential_storage
  Max. number of atoms included in rho_multipole:            6

  End scf initialization - timings             :  max(cpu_time)    wall_clock(cpu1)
  | Time for scf. initialization                :       20.187 s          20.188 s
  | Boundary condition initialization           :        0.121 s           0.121 s
  | Relaxation initialization                   :        0.009 s           0.009 s
  | Integration                                 :       17.043 s          17.044 s
  | Solution of K.-S. eqns.                     :        1.226 s           1.227 s
  | Grid partitioning                           :        0.171 s           0.171 s
  | Preloading free-atom quantities on grid     :        1.626 s           1.626 s
  | Free-atom superposition energy              :        0.108 s           0.108 s
  | Total energy evaluation                     :        0.001 s           0.002 s

  Partial memory accounting:
  | Current value for overall tracked memory usage:
  |   Minimum:       28.552 MB (on task 21)
  |   Maximum:       28.772 MB (on task  1)
  |   Average:       28.735 MB
  | Peak value for overall tracked memory usage:
  |   Minimum:       69.101 MB (on task  2 after allocating wave)
  |   Maximum:       71.987 MB (on task  9 after allocating wave)
  |   Average:       70.510 MB
  | Largest tracked array allocation so far:
  |   Minimum:       25.971 MB (hamiltonian_shell on task  2)
  |   Maximum:       28.242 MB (hamiltonian_shell on task  9)
  |   Average:       27.107 MB
  Note:  These values currently only include a subset of arrays which are explicitly tracked.
  The "true" memory usage will be greater.
------------------------------------------------------------
  Available memory after initialize_scf [GB]:    522.95
  Available memory after allocating mixing [GB]:    522.95
  Evaluating new KS density using the density matrix
  Evaluating density matrix
  Time summed over all CPUs for getting density from density matrix: real work      243.729 s, elapsed      567.867 s
  Integration grid: deviation in total charge (<rho> - N_e) =   2.842171E-14

  Time for density update prior                :  max(cpu_time)    wall_clock(cpu1)
  | self-consistency iterative process          :       24.015 s          24.016 s
  Available memory before start of SCF loop [GB]:    522.86

------------------------------------------------------------
          Begin self-consistency iteration #    1

  Date     :  20240709, Time     :  135431.831
------------------------------------------------------------
  Pulay mixing of updated and previous charge densities.
  Available memory per node after mixing [GB]:    522.86
  Renormalizing the density to the exact electron count on the 3D integration grid.
  | Formal number of electrons (from input files) :      76.0000000000
  | Integrated number of electrons on 3D grid     :      76.0000000000
  | Charge integration error                      :      -0.0000000000
  | Normalization factor for density and gradient :       1.0000000000

  Evaluating partitioned Hartree potential by multipole expansion.
  | Original multipole sum: apparent total charge =  -0.525900E-13
  | Sum of charges compensated after spline to logarithmic grids =  -0.698278E-07
  | Analytical far-field extrapolation by fixed multipoles:
  | Hartree multipole sum: apparent total charge =  -0.525100E-13
  Summing up the Hartree potential.
  Time summed over all CPUs for potential: real work        0.124 s, elapsed        0.327 s
  | RMS charge density error from multipole expansion :   0.759612E-03
  | Average real-space part of the electrostatic potential :      0.09195704 eV

  Integrating Hamiltonian matrix: batch-based integration.
  Time summed over all CPUs for integration: real work      169.166 s, elapsed      370.199 s => Consider using load balancing!

  Updating Kohn-Sham eigenvalues and eigenvectors using ELSI and the (modified) LAPACK eigensolver.
  Starting LAPACK eigensolver
  Finished Cholesky decomposition
  | Time :     0.002 s
  Finished transformation to standard eigenproblem
  | Time :     0.003 s
  Finished solving standard eigenproblem
  | Time :     0.011 s
  Finished back-transformation of eigenvectors
  | Time :     0.001 s

  Obtaining occupation numbers and electronic chemical potential using ELSI.
  | Note that, for insulating systems, the printed 'chemical potential' value is not uniquely defined.
  | It can be anywhere in the energy gap, as long as it correctly separates occupied and unoccupied states.
  | In systems with a gap, the physically relevant chemical potential is the VBM or HOMO.

  | Chemical potential (Fermi level):    -7.54826962 eV
  Writing Kohn-Sham eigenvalues.
  K-point:       1 at    0.000000    0.000000    0.000000 (in units of recip. lattice)

  State    Occupation    Eigenvalue [Ha]    Eigenvalue [eV]
      1       2.00000        -180.841693        -4920.95285
      2       2.00000        -180.810926        -4920.11564
      3       2.00000         -20.101000         -546.97604
      4       2.00000         -20.081394         -546.44254
      5       2.00000         -19.389938         -527.62706
      6       2.00000         -19.389891         -527.62577
      7       2.00000         -19.246880         -523.73425
      8       2.00000         -19.246801         -523.73211
      9       2.00000         -16.601894         -451.76051
     10       2.00000         -16.601698         -451.75518
     11       2.00000         -16.601633         -451.75342
     12       2.00000         -16.585128         -451.30431
     13       2.00000         -16.578018         -451.11082
     14       2.00000         -16.577734         -451.10310
     15       2.00000          -2.553929          -69.49595
     16       2.00000          -2.442623          -66.46714
     17       2.00000          -1.902221          -51.76207
     18       2.00000          -1.577198          -42.91774
     19       2.00000          -1.570880          -42.74582
     20       2.00000          -1.536589          -41.81271
     21       2.00000          -1.525216          -41.50324
     22       2.00000          -1.522972          -41.44218
     23       2.00000          -1.198877          -32.62312
     24       2.00000          -1.128343          -30.70378
     25       2.00000          -1.074510          -29.23891
     26       2.00000          -0.973362          -26.48654
     27       2.00000          -0.736142          -20.03145
     28       2.00000          -0.700067          -19.04979
     29       2.00000          -0.696465          -18.95178
     30       2.00000          -0.609318          -16.58038
     31       2.00000          -0.562659          -15.31074
     32       2.00000          -0.562320          -15.30151
     33       2.00000          -0.553601          -15.06424
     34       2.00000          -0.491508          -13.37461
     35       2.00000          -0.489583          -13.32223
     36       2.00000          -0.479143          -13.03816
     37       2.00000          -0.478106          -13.00993
     38       2.00000          -0.283191           -7.70601
     39       0.00000          -0.272728           -7.42131
     40       0.00000          -0.229748           -6.25177
     41       0.00000          -0.196968           -5.35978
     42       0.00000          -0.179270           -4.87819
     43       0.00000          -0.178932           -4.86898
     44       0.00000          -0.168351           -4.58107
     45       0.00000          -0.086244           -2.34682
     46       0.00000          -0.071097           -1.93465
     47       0.00000          -0.054415           -1.48072
     48       0.00000          -0.035085           -0.95471
     49       0.00000           0.064648            1.75916
     50       0.00000           0.065354            1.77838
     51       0.00000           0.083764            2.27933
     52       0.00000           0.156920            4.27002
     53       0.00000           0.226321            6.15850
     54       0.00000           0.281227            7.65257
     55       0.00000           0.302753            8.23832
     56       0.00000           0.372085           10.12495
     57       0.00000           0.400936           10.91001
     58       0.00000           0.434821           11.83208
     59       0.00000           0.584245           15.89811
     60       0.00000           0.626359           17.04408
     61       0.00000           0.705330           19.19301

  What follows are estimated values for band gap, HOMO, LUMO, etc.
  | They are estimated on a discrete k-point grid and not necessarily exact.
  | For converged numbers, create a DOS and/or band structure plot on a denser k-grid.

  Highest occupied state (VBM) at     -7.59904724 eV (relative to internal zero)
  | Occupation number:      2.00000000
  | K-point:       2 at    0.000000    0.000000    0.125000 (in units of recip. lattice)

  Lowest unoccupied state (CBM) at    -7.49446019 eV (relative to internal zero)
  | Occupation number:      0.00000000
  | K-point:     202 at    0.500000    0.500000    0.000000 (in units of recip. lattice)

  ESTIMATED overall HOMO-LUMO gap:      0.10458705 eV between HOMO at k-point 2 and LUMO at k-point 202
  | This appears to be an indirect band gap.
  | Smallest direct gap :      0.21792621 eV for k_point 206 at    0.500000    0.500000    0.875000 (in units of recip. lattice)
  The gap value is rather small. This may be a metal or a small-gap semiconductor.
  Since we use a finite k-point grid, a DOS and/or band structure plot is required
  for an unambiguous assignment.

  Total energy components:
  | Sum of eigenvalues            :       -1208.73344900 Ha      -32891.31063864 eV
  | XC energy correction          :        -119.38615455 Ha       -3248.66255548 eV
  | XC potential correction       :         163.32012406 Ha        4444.16669243 eV
  | Free-atom electrostatic energy:        -848.83767160 Ha      -23098.04825987 eV
  | Hartree energy correction     :          -0.42276041 Ha         -11.50389604 eV
  | Entropy correction            :          -0.00000000 Ha          -0.00000000 eV
  | ---------------------------
  | Total energy                  :       -2014.05991149 Ha      -54805.35865760 eV
  | Total energy, T -> 0          :       -2014.05991149 Ha      -54805.35865760 eV  <-- do not rely on this value for anything but (periodic) metals
  | Electronic free energy        :       -2014.05991149 Ha      -54805.35865760 eV

  Derived energy quantities:
  | Kinetic energy                :        2022.18872130 Ha       55026.55482696 eV
  | Electrostatic energy          :       -3916.86247824 Ha     -106583.25092907 eV
  | Energy correction for multipole
  | error in Hartree potential    :          -0.00038103 Ha          -0.01036829 eV
  | Sum of eigenvalues per atom                           :       -5481.88510644 eV
  | Total energy (T->0) per atom                          :       -9134.22644293 eV  <-- do not rely on this value for anything but (periodic) metals
  | Electronic free energy per atom                       :       -9134.22644293 eV
  Evaluating new KS density using the density matrix
  Evaluating density matrix
  Time summed over all CPUs for getting density from density matrix: real work      236.021 s, elapsed      520.008 s
  Integration grid: deviation in total charge (<rho> - N_e) =   2.842171E-14

  Self-consistency convergence accuracy:
  | Change of charge density      :  0.8308E+00
  | Change of unmixed KS density  :  0.7199E+02
  | Change of sum of eigenvalues  : -0.3582E+03 eV
  | Change of total energy        : -0.1644E+03 eV


------------------------------------------------------------
  End self-consistency iteration #     1       :  max(cpu_time)    wall_clock(cpu1)
  | Time for this iteration                     :       38.493 s          38.500 s
  | Charge density update                       :       21.902 s          21.903 s
  | Density mixing                              :        0.001 s           0.001 s
  | Hartree multipole update                    :        0.004 s           0.004 s
  | Hartree multipole summation                 :        0.331 s           0.331 s
  | Integration                                 :       15.485 s          15.491 s
  | Solution of K.-S. eqns.                     :        0.769 s           0.769 s
  | Total energy evaluation                     :        0.001 s           0.001 s

  Partial memory accounting:
  | Current value for overall tracked memory usage:
  |   Minimum:       32.028 MB (on task 21)
  |   Maximum:       32.299 MB (on task  9)
  |   Average:       32.238 MB
  | Peak value for overall tracked memory usage:
  |   Minimum:       72.582 MB (on task  2 after allocating wave)
  |   Maximum:       75.514 MB (on task  9 after allocating wave)
  |   Average:       74.012 MB
  | Largest tracked array allocation so far:
  |   Minimum:       25.971 MB (hamiltonian_shell on task  2)
  |   Maximum:       28.242 MB (hamiltonian_shell on task  9)
  |   Average:       27.107 MB
  Note:  These values currently only include a subset of arrays which are explicitly tracked.
  The "true" memory usage will be greater.
------------------------------------------------------------

------------------------------------------------------------
          Begin self-consistency iteration #    2

  Date     :  20240709, Time     :  135510.332
------------------------------------------------------------
  Pulay mixing of updated and previous charge densities.
  Available memory per node after mixing [GB]:    522.25
  Renormalizing the density to the exact electron count on the 3D integration grid.
  | Formal number of electrons (from input files) :      76.0000000000
  | Integrated number of electrons on 3D grid     :      76.0000000000
  | Charge integration error                      :       0.0000000000
  | Normalization factor for density and gradient :       1.0000000000

  Evaluating partitioned Hartree potential by multipole expansion.
  | Original multipole sum: apparent total charge =   0.155581E-13
  | Sum of charges compensated after spline to logarithmic grids =  -0.335124E-06
  | Analytical far-field extrapolation by fixed multipoles:
  | Hartree multipole sum: apparent total charge =   0.157917E-13
  Summing up the Hartree potential.
  Time summed over all CPUs for potential: real work        0.121 s, elapsed        0.315 s
  | RMS charge density error from multipole expansion :   0.213154E-02
  | Average real-space part of the electrostatic potential :      0.25233006 eV

  Integrating Hamiltonian matrix: batch-based integration.
  Time summed over all CPUs for integration: real work      164.566 s, elapsed      356.741 s => Consider using load balancing!

  Updating Kohn-Sham eigenvalues and eigenvectors using ELSI and the (modified) LAPACK eigensolver.
  Starting LAPACK eigensolver
  Finished Cholesky decomposition
  | Time :     0.002 s
  Finished transformation to standard eigenproblem
  | Time :     0.003 s
  Finished solving standard eigenproblem
  | Time :     0.010 s
  Finished back-transformation of eigenvectors
  | Time :     0.000 s

  Obtaining occupation numbers and electronic chemical potential using ELSI.
  | Note that, for insulating systems, the printed 'chemical potential' value is not uniquely defined.
  | It can be anywhere in the energy gap, as long as it correctly separates occupied and unoccupied states.
  | In systems with a gap, the physically relevant chemical potential is the VBM or HOMO.

  | Chemical potential (Fermi level):    -7.35420806 eV
  What follows are estimated values for band gap, HOMO, LUMO, etc.
  | They are estimated on a discrete k-point grid and not necessarily exact.
  | For converged numbers, create a DOS and/or band structure plot on a denser k-grid.

  Highest occupied state (VBM) at     -7.35548886 eV (relative to internal zero)
  | Occupation number:      1.14373665
  | K-point:      28 at    0.000000    0.500000    0.625000 (in units of recip. lattice)

  Lowest unoccupied state (CBM) at    -7.33206102 eV (relative to internal zero)
  | Occupation number:      0.00173582
  | K-point:     153 at    0.375000    0.375000    0.750000 (in units of recip. lattice)

  ESTIMATED overall HOMO-LUMO gap:      0.02342784 eV between HOMO at k-point 28 and LUMO at k-point 153
  | This appears to be an indirect band gap.
  | Smallest direct gap :      0.33143237 eV for k_point 181 at    0.500000    0.000000    0.375000 (in units of recip. lattice)
  However, this system has fractional occupation numbers. Since we use a finite k-point grid,
  this material is metallic within the approximate finite broadening function (occupation_type)
  applied to determine the occupation numbers.

  Checking to see if s.c.f. parameters should be adjusted.
  Adjusted the Pulay mixing parameter (charge_mix_param) for an expected low-gap system. New value:   0.020000 .
  Adjusted the occupation broadening width for an expected low-gap system. New value:      0.05000000 eV.

  Total energy components:
  | Sum of eigenvalues            :       -1207.98105352 Ha      -32870.83691596 eV
  | XC energy correction          :        -119.52788744 Ha       -3252.51930370 eV
  | XC potential correction       :         163.51141524 Ha        4449.37199016 eV
  | Free-atom electrostatic energy:        -848.83767160 Ha      -23098.04825987 eV
  | Hartree energy correction     :          -1.07128963 Ha         -29.15127394 eV
  | Entropy correction            :          -0.00002458 Ha          -0.00066893 eV
  | ---------------------------
  | Total energy                  :       -2013.90648694 Ha      -54801.18376330 eV
  | Total energy, T -> 0          :       -2013.90651153 Ha      -54801.18443224 eV  <-- do not rely on this value for anything but (periodic) metals
  | Electronic free energy        :       -2013.90653611 Ha      -54801.18510117 eV

  Derived energy quantities:
  | Kinetic energy                :        2023.53679728 Ha       55063.23784058 eV
  | Electrostatic energy          :       -3917.91539678 Ha     -106611.90230018 eV
  | Energy correction for multipole
  | error in Hartree potential    :          -0.00101911 Ha          -0.02773141 eV
  | Sum of eigenvalues per atom                           :       -5478.47281933 eV
  | Total energy (T->0) per atom                          :       -9133.53073871 eV  <-- do not rely on this value for anything but (periodic) metals
  | Electronic free energy per atom                       :       -9133.53085019 eV
  Evaluating new KS density using the density matrix
  Evaluating density matrix
  Time summed over all CPUs for getting density from density matrix: real work      228.817 s, elapsed      487.411 s
  Integration grid: deviation in total charge (<rho> - N_e) =   1.421085E-14

  Self-consistency convergence accuracy:
  | Change of charge density      :  0.7232E+00
  | Change of unmixed KS density  :  0.2202E+00
  | Change of sum of eigenvalues  :  0.2047E+02 eV
  | Change of total energy        :  0.4175E+01 eV


------------------------------------------------------------
  End self-consistency iteration #     2       :  max(cpu_time)    wall_clock(cpu1)
  | Time for this iteration                     :       36.689 s          36.690 s
  | Charge density update                       :       20.532 s          20.532 s
  | Density mixing                              :        0.002 s           0.001 s
  | Hartree multipole update                    :        0.004 s           0.005 s
  | Hartree multipole summation                 :        0.319 s           0.318 s
  | Integration                                 :       14.904 s          14.905 s
  | Solution of K.-S. eqns.                     :        0.928 s           0.928 s
  | Total energy evaluation                     :        0.001 s           0.001 s

  Partial memory accounting:
  | Current value for overall tracked memory usage:
  |   Minimum:       32.029 MB (on task 21)
  |   Maximum:       32.300 MB (on task  9)
  |   Average:       32.239 MB
  | Peak value for overall tracked memory usage:
  |   Minimum:       72.582 MB (on task  2 after allocating wave)
  |   Maximum:       75.514 MB (on task  9 after allocating wave)
  |   Average:       74.013 MB
  | Largest tracked array allocation so far:
  |   Minimum:       25.971 MB (hamiltonian_shell on task  2)
  |   Maximum:       28.242 MB (hamiltonian_shell on task  9)
  |   Average:       27.107 MB
  Note:  These values currently only include a subset of arrays which are explicitly tracked.
  The "true" memory usage will be greater.
------------------------------------------------------------

------------------------------------------------------------
          Begin self-consistency iteration #    3

  Date     :  20240709, Time     :  135547.022
------------------------------------------------------------
  Pulay mixing of updated and previous charge densities.
  Available memory per node after mixing [GB]:    522.25
  Renormalizing the density to the exact electron count on the 3D integration grid.
  | Formal number of electrons (from input files) :      76.0000000000
  | Integrated number of electrons on 3D grid     :      76.0000000000
  | Charge integration error                      :      -0.0000000000
  | Normalization factor for density and gradient :       1.0000000000

  Evaluating partitioned Hartree potential by multipole expansion.
  | Original multipole sum: apparent total charge =  -0.176981E-13
  | Sum of charges compensated after spline to logarithmic grids =  -0.527609E-06
  | Analytical far-field extrapolation by fixed multipoles:
  | Hartree multipole sum: apparent total charge =  -0.176489E-13
  Summing up the Hartree potential.
  Time summed over all CPUs for potential: real work        0.125 s, elapsed        0.346 s
  | RMS charge density error from multipole expansion :   0.310156E-02
  | Average real-space part of the electrostatic potential :      0.35947803 eV

  Integrating Hamiltonian matrix: batch-based integration.
  Time summed over all CPUs for integration: real work      158.655 s, elapsed      310.171 s => Consider using load balancing!

  Updating Kohn-Sham eigenvalues and eigenvectors using ELSI and the (modified) LAPACK eigensolver.
  Starting LAPACK eigensolver
  Finished Cholesky decomposition
  | Time :     0.002 s
  Finished transformation to standard eigenproblem
  | Time :     0.004 s
  Finished solving standard eigenproblem
  | Time :     0.010 s
  Finished back-transformation of eigenvectors
  | Time :     0.001 s

  Obtaining occupation numbers and electronic chemical potential using ELSI.
  | Note that, for insulating systems, the printed 'chemical potential' value is not uniquely defined.
  | It can be anywhere in the energy gap, as long as it correctly separates occupied and unoccupied states.
  | In systems with a gap, the physically relevant chemical potential is the VBM or HOMO.

  | Chemical potential (Fermi level):    -7.69885883 eV
  What follows are estimated values for band gap, HOMO, LUMO, etc.
  | They are estimated on a discrete k-point grid and not necessarily exact.
  | For converged numbers, create a DOS and/or band structure plot on a denser k-grid.

  Highest occupied state (VBM) at     -7.70599218 eV (relative to internal zero)
  | Occupation number:      1.15989669
  | K-point:      22 at    0.000000    0.375000    0.625000 (in units of recip. lattice)

  Lowest unoccupied state (CBM) at    -7.69820014 eV (relative to internal zero)
  | Occupation number:      0.98513569
[...]
   Pulay + GGA                   :  0.461878E+01 -0.461878E+01  0.670102E-06
   ----------------------------------------------------------------
   Total forces(   5)            : -0.119606E-01  0.119601E-01  0.132219E-07
  atom #    6
   Hellmann-Feynman              :  0.460045E+01 -0.460044E+01 -0.691253E-06
   Ionic forces                  :  0.000000E+00  0.000000E+00  0.000000E+00
   Multipole                     :  0.302921E-01 -0.302945E-01  0.327017E-07
   Hartree pot. SCF incomplete   : -0.340926E-06  0.341262E-06  0.326245E-10
   Pulay + GGA                   : -0.461878E+01  0.461878E+01  0.668890E-06
   ----------------------------------------------------------------
   Total forces(   6)            :  0.119606E-01 -0.119601E-01  0.103712E-07


  Analytical stress tensor components [eV]         xx                  yy                  zz                  xy                  xz                  yz
  -----------------------------------------------------------------------------------------------------------------------------------------------------------
    Nuclear Hellmann-Feynman      :    -0.1180722736E+03   -0.1180715678E+03   -0.1646050971E+03    0.6082883968E+00    0.4164277397E-08    0.2376979105E-08
    Multipole Hellmann-Feynman    :    -0.1350366000E+03   -0.1350366616E+03   -0.2100613178E+03    0.9338272103E+00    0.1096614777E-07    0.5065344419E-08
    On-site Multipole corrections :    -0.1433606589E+00   -0.1433606577E+00   -0.1425465429E+00    0.7020795322E-05    0.1411444166E-10    0.3963644575E-11
    Strain deriv. of the orbitals :     0.2527658382E+03    0.2527651864E+03    0.3749228001E+03   -0.1244424397E+01   -0.9947013789E-08   -0.6442141437E-08
  -----------------------------------------------------------------------------------------------------------------------------------------------------------
  Sum of all contributions        :    -0.4863959929E+00   -0.4864037008E+00    0.1138386677E+00    0.2976982312E+00    0.5197525824E-08    0.1004145732E-08

  +-------------------------------------------------------------------+
  |              Analytical stress tensor - Symmetrized               |
  |                  Cartesian components [eV/A**3]                   |
  +-------------------------------------------------------------------+
  |                x                y                z                |
  |                                                                   |
  |  x        -0.00767499       0.00469747       0.00000000           |
  |  y         0.00469747      -0.00767512       0.00000000           |
  |  z         0.00000000       0.00000000       0.00179630           |
  |                                                                   |
  |  Pressure:       0.00451794   [eV/A**3]                           |
  |                                                                   |
  +-------------------------------------------------------------------+

 * Warning: Stress tensor is anisotropic. Be aware that pressure is an isotropic quantity.


  Self-consistency convergence accuracy:
  | Change of charge density      :  0.2945E-07
  | Change of unmixed KS density  :  0.3423E-07
  | Change of sum of eigenvalues  :  0.2594E-05 eV
  | Change of total energy        : -0.2475E-10 eV
  | Change of forces              :  0.1554E-05 eV/A

  Writing Kohn-Sham eigenvalues.
  K-point:       1 at    0.000000    0.000000    0.000000 (in units of recip. lattice)

  State    Occupation    Eigenvalue [Ha]    Eigenvalue [eV]
      1       2.00000        -180.905191        -4922.68070
      2       2.00000        -180.904504        -4922.66201
      3       2.00000         -20.207721         -549.88007
      4       2.00000         -20.207055         -549.86194
      5       2.00000         -19.081489         -519.23373
      6       2.00000         -19.081351         -519.22999
      7       2.00000         -19.080929         -519.21849
      8       2.00000         -19.080789         -519.21469
      9       2.00000         -16.705050         -454.56755
     10       2.00000         -16.705009         -454.56642
     11       2.00000         -16.704980         -454.56563
     12       2.00000         -16.704406         -454.55002
     13       2.00000         -16.704332         -454.54799
     14       2.00000         -16.704317         -454.54758
     15       2.00000          -2.533731          -68.94632
     16       2.00000          -2.532909          -68.92397
     17       2.00000          -1.620834          -44.10515
     18       2.00000          -1.620286          -44.09022
     19       2.00000          -1.614505          -43.93291
     20       2.00000          -1.614459          -43.93166
     21       2.00000          -1.613239          -43.89846
     22       2.00000          -1.611910          -43.86230
     23       2.00000          -1.058570          -28.80515
     24       2.00000          -1.017626          -27.69102
     25       2.00000          -0.991344          -26.97584
     26       2.00000          -0.990434          -26.95109
     27       2.00000          -0.564361          -15.35704
     28       2.00000          -0.549606          -14.95555
     29       2.00000          -0.530489          -14.43534
     30       2.00000          -0.495838          -13.49245
     31       2.00000          -0.493706          -13.43441
     32       2.00000          -0.446992          -12.16326
     33       2.00000          -0.446078          -12.13840
     34       2.00000          -0.426441          -11.60405
     35       2.00000          -0.378948          -10.31170
     36       2.00000          -0.368551          -10.02877
     37       2.00000          -0.368124          -10.01717
     38       2.00000          -0.351489           -9.56450
     39       0.00000          -0.270489           -7.36037
     40       0.00000          -0.258276           -7.02805
     41       0.00000          -0.250949           -6.82867
     42       0.00000          -0.248213           -6.75421
     43       0.00000          -0.247786           -6.74261
     44       0.00000          -0.181651           -4.94298
     45       0.00000          -0.173114           -4.71066
     46       0.00000          -0.096873           -2.63604
     47       0.00000          -0.096023           -2.61293
     48       0.00000          -0.060426           -1.64428
     49       0.00000          -0.040489           -1.10175
     50       0.00000           0.113848            3.09795
     51       0.00000           0.114766            3.12294
     52       0.00000           0.211383            5.75203
     53       0.00000           0.259919            7.07276
     54       0.00000           0.314593            8.56051
     55       0.00000           0.360591            9.81218
     56       0.00000           0.409254           11.13636
     57       0.00000           0.412285           11.21885
     58       0.00000           0.467565           12.72309
     59       0.00000           0.476453           12.96494
     60       0.00000           0.570442           15.52251
     61       0.00000           0.618956           16.84264

  What follows are estimated values for band gap, HOMO, LUMO, etc.
  | They are estimated on a discrete k-point grid and not necessarily exact.
  | For converged numbers, create a DOS and/or band structure plot on a denser k-grid.

  Highest occupied state (VBM) at     -9.56450106 eV (relative to internal zero)
  | Occupation number:      2.00000000
  | K-point:       1 at    0.000000    0.000000    0.000000 (in units of recip. lattice)

  Lowest unoccupied state (CBM) at    -7.36037245 eV (relative to internal zero)
  | Occupation number:      0.00000000
  | K-point:       1 at    0.000000    0.000000    0.000000 (in units of recip. lattice)

  ESTIMATED overall HOMO-LUMO gap:      2.20412861 eV between HOMO at k-point 1 and LUMO at k-point 1
  | This appears to be a direct band gap.
  The gap value is above 0.2 eV. Unless you are using a very sparse k-point grid,
  this system is most likely an insulator or a semiconductor.

  | Chemical Potential                          :    -8.48206480 eV
  | Note that, for insulating systems, the printed 'chemical potential' value is not uniquely defined.
  | It can be anywhere in the energy gap, as long as it correctly separates occupied and unoccupied states.
  | In systems with a gap, the physically relevant chemical potential is the VBM or HOMO.

  Self-consistency cycle converged.


------------------------------------------------------------
  End self-consistency iteration #    11       :  max(cpu_time)    wall_clock(cpu1)
  | Time for this iteration                     :       82.593 s          82.596 s
  | Charge density & force component update     :       77.514 s          77.516 s
  | Density mixing                              :        0.001 s           0.001 s
  | Hartree multipole update                    :        0.002 s           0.002 s
  | Hartree multipole summation                 :        0.826 s           0.826 s
  | Hartree pot. SCF incomplete forces          :        0.896 s           0.897 s
  | Integration                                 :        3.094 s           3.094 s
  | Solution of K.-S. eqns.                     :        0.259 s           0.259 s
  | Total energy evaluation                     :        0.000 s           0.001 s

  Partial memory accounting:
  | Current value for overall tracked memory usage:
  |   Minimum:       33.945 MB (on task 22)
  |   Maximum:       34.435 MB (on task  9)
  |   Average:       34.332 MB
  | Peak value for overall tracked memory usage:
  |   Minimum:       90.480 MB (on task  7 after allocating d_wave)
  |   Maximum:       93.717 MB (on task  9 after allocating d_wave)
  |   Average:       91.993 MB
  | Largest tracked array allocation so far:
  |   Minimum:       26.225 MB (hamiltonian_shell on task  7)
  |   Maximum:       28.242 MB (hamiltonian_shell on task  9)
  |   Average:       27.181 MB
  Note:  These values currently only include a subset of arrays which are explicitly tracked.
  The "true" memory usage will be greater.
------------------------------------------------------------
  Removing unitary transformations (pure translations, rotations) from forces on atoms.
  Atomic forces before filtering:
  | Net force on center of mass :  -0.874098E-07 -0.152757E-06  0.701584E-07 eV/A
  Atomic forces after filtering:
  | Net force on center of mass :   0.139380E-17  0.139380E-17 -0.691199E-22 eV/A

  Energy and forces in a compact form:
  | Total energy uncorrected      :         -0.548232855577723E+05 eV
  | Total energy corrected        :         -0.548232855577723E+05 eV  <-- do not rely on this value for anything but (periodic) metals
  | Electronic free energy        :         -0.548232855577723E+05 eV
  Total atomic forces (unitary forces cleaned) [eV/Ang]:
  |    1          0.837898660677622E-07         -0.327822358575905E-07          0.140697353073817E-06
  |    2         -0.152854326066428E-06         -0.790071824745921E-07         -0.123480393905794E-06
  |    3          0.119370143524430E-02          0.119346081636370E-02         -0.100473907211447E-07
  |    4         -0.119366198996894E-02         -0.119338236585541E-02         -0.737647826305080E-08
  |    5         -0.119605853783273E-01          0.119601386733378E-01          0.152880510323271E-08
  |    6          0.119606149975119E-01         -0.119601053344278E-01         -0.132189528705968E-08

  ------------------------------------ 
  Start decomposition of the XC Energy 
  ------------------------------------ 
  X and C from original XC functional choice 
  Hartree-Fock Energy :          0.000000000 Ha              0.000000000 eV
  X Energy            :       -116.448119170 Ha          -3168.714545026 eV
  C Energy            :         -2.991680239 Ha            -81.407761283 eV
  XC Energy w/o HF    :       -119.439799409 Ha          -3250.122306309 eV
  Total XC Energy     :       -119.439799409 Ha          -3250.122306309 eV
  ------------------------------------ 
  LDA X and C from self-consistent density 
  X Energy LDA        :       -107.315722229 Ha          -2920.209380463 eV
  C Energy LDA        :         -5.873154717 Ha           -159.816671230 eV
  ------------------------------------ 
  End decomposition of the XC Energy 
  ------------------------------------ 

------------------------------------------------------------
  Relaxation / MD: End force evaluation.       :  max(cpu_time)    wall_clock(cpu1)
  | Time for this force evaluation              :      179.186 s         179.198 s

------------------------------------------------------------
  Geometry optimization: Attempting to predict improved coordinates.

  +-------------------------------------------------------------------+
  | Generalized derivatives on lattice vectors [eV/A]                 |
  +-------------------------------------------------------------------+
  |lattice_vector      -0.10544277       0.06465383       0.00000000  |
  |lattice_vector       0.06465381      -0.10544442       0.00000000  |
  |lattice_vector       0.00000000       0.00000000       0.03830671  |
  +-------------------------------------------------------------------+
  | Forces on lattice vectors cleaned from atomic contributions [eV/A]|
  +-------------------------------------------------------------------+
  |lattice_vector       0.10544277      -0.06465383      -0.00000000  |
  |lattice_vector      -0.06465381       0.10544442      -0.00000000  |
  |lattice_vector      -0.00000000      -0.00000000      -0.03830671  |
  +-------------------------------------------------------------------+
  Removing unitary transformations (pure translations, rotations) from forces on atoms.
  Atomic forces before filtering:
  | Net force on center of mass :   0.139380E-17  0.139380E-17 -0.691199E-22 eV/A
  Atomic forces after filtering:
  | Net force on center of mass :   0.000000E+00  0.000000E+00  0.259200E-22 eV/A
  Net remaining forces (excluding translations, rotations) in present geometry:
  || Forces on atoms   || =   0.119606E-01 eV/A.
  || Forces on lattice || =   0.105444E+00 eV/A^3.
  Maximum force component is  0.105444E+00 eV/A.
  Present geometry is not yet converged.

  Relaxation step number     14: Predicting new coordinates.

  Advancing geometry using trust radius method.
  | True / expected gain:  1.25E-03 eV / -1.03E-03 eV =   -1.2167
  | Harmonic / expected gain: -1.03E-03 eV / -1.03E-03 eV =    1.0029
  | Using harmonic gain <DX|-(F0+F1)/2> instead of DE to judge step.
  **
  ** The relaxation algorithm did not achieve its requested precision target.
  ** Specifically, the relaxation trajectory moved uphill from its lowest known energy so far
  ** by more than:              0.00300 eV.
  ** This likely means that the relaxation trajectory went uphill in a series of multiple small steps.
  ** In general, this should not happen - we therefore stop here to warn the user at this stage.
  ** Please check (e.g., using the get_relaxation_info.pl utility) whether the relaxation indeed
  ** climbed uphill in multiple steps.
  **
  ** Possible remedies include:
  **
  ** (1) Use denser integration grids to see if this is just related to grid quality.
  **     For instance, if you are using 'light' settings, continue with intermediate or tight settings.
  **     Better integration grids will improve the numerical precision of the computed forces.
  **
  ** (2) Resetting the Hessian matrix built during the BFGS algorithm may sometimes help.
  **     Just restart the relaxation in a new directory, using the file geometry.in.next_step
  **     as the new geometry.in file. (Use a new directory to avoid overwriting output from the present run.)
  **     The 'hessian.aims' file should be copied over or you may set a different initial
  **     Hessian matrix altogether, using the 'init_hess' keyword.
  **
  ** (3) You can adjust the maximum allowed increase using the aggregated_energy_tolerance keyword.
  **     However, be very careful if you do this. The energy should usually not go up significantly
  **     during relaxation. If it does, then something else could be wrong and you need to find and
  **     address the underlying cause. Otherwise you might simply be getting wrong results.
  **
  ** (4) If you indeed observe multiple successive uphill energy steps that were accepted by
  **     the relaxation algorithm, please let us know. This should not happen and actually,
  **     we are not aware under which circumstances it might happen. (Would be good to know.)
  **
  ** Sorry about this inconvenience.
  **

------------------------------------------------------------
          Leaving FHI-aims.
          Date     :  20240709, Time     :  154442.093

          Computational steps:
          | Number of self-consistency cycles          :          221
          | Number of SCF (re)initializations          :           14
          | Number of relaxation steps                 :           14

          Detailed time accounting                     :  max(cpu_time)    wall_clock(cpu1)
          | Total time                                  :     6654.832 s        6655.092 s
          | Preparation time                            :        0.431 s           0.424 s
          | Boundary condition initalization            :        1.245 s           1.103 s
          | Grid partitioning                           :        1.485 s           1.484 s
          | Preloading free-atom quantities on grid     :       12.995 s          12.995 s
          | Free-atom superposition energy              :        0.907 s           0.910 s
          | Total time for integrations                 :     1650.914 s        1650.981 s
          | Total time for solution of K.-S. equations  :      107.251 s         107.261 s
          | Total time for EV reorthonormalization      :        0.911 s           0.473 s
          | Total time for density & force components   :     4761.285 s        4761.464 s
          | Total time for mixing                       :        0.454 s           0.453 s
          | Total time for Hartree multipole update     :        0.605 s           0.603 s
          | Total time for Hartree multipole sum        :       78.034 s          78.040 s
          | Total time for total energy evaluation      :        0.142 s           0.145 s
          | Total time NSC force correction             :       37.466 s          37.473 s
          | Total time for scaled ZORA corrections      :        0.000 s           0.000 s

          Partial memory accounting:
          | Residual value for overall tracked memory usage across tasks:   824.006058 MB (should be 0.000000 MB)
          |
          | Largest tracked array allocation:
          |   Minimum:       26.225 MB (hamiltonian_shell on task  7)
          |   Maximum:       28.242 MB (hamiltonian_shell on task  9)
          |   Average:       27.181 MB
          |
          | Because the residual tracked memory usage was not zero, the peak value for overall
          | tracked memory usage was not output, as it is probably incorrect.  This is likely due
          | to a missing aims_deallocate statement in the source code, which should be otherwise
          | harmless.
          |
          Note:  These values currently only include a subset of arrays which are explicitly tracked.
          The "true" memory usage will be greater.

------------------------------------------------------------

  *  This FHI-aims run ended, but the code exited with an error and did not run to completion.
  *  There is likely a more detailed error message printed just above the timing information.
  *  If so, please refer to that error message to learn more.

 *** trusted_descent: Too many uphill relaxation steps, overall above aggregated_energy_tolerance.
 
