------------------------------------------------------------
          Invoking FHI-aims ...

          When using FHI-aims, please cite the following reference:

            Volker Blum, Ralf Gehrke, Felix Hanke, Paula Havu,
            Ville Havu, Xinguo Ren, Karsten Reuter, and Matthias Scheffler,
            'Ab Initio Molecular Simulations with Numeric Atom-Centered Orbitals',
            Computer Physics Communications 180, 2175-2196 (2009)

          In addition, many other developments in FHI-aims are likely important for
          your particular application. If so, please cite them. A partial list of references
          is written at the end of this file. Thank you for giving credit to the authors
          of these developments.

          For general information about FHI-aims please find us at

            https://fhi-aims.org

          Online tutorials can be found at

            https://fhi-aims-club.gitlab.io/tutorials/tutorials-overview/

          For any questions about FHI-aims, please visit our slack channel at

            https://fhi-aims.slack.com

          and our main development and support site at

            https://aims-git.rz-berlin.mpg.de .

          The latter site, in particular, has a wiki to collect information, as well
          as an issue tracker to log discussions, suggest improvements, and report issues
          or bugs. https://aims-git.rz-berlin.mpg.de is also the main development site
          of the project and all new and updated code versions can be obtained there.
          Please send an email to aims-coordinators@fhi-berlin.mpg.de and we will add
          you to these sites. They are for you and everyone is welcome there.

------------------------------------------------------------



  Date     :  20240925, Time     :  151807.766
  Time zero on CPU 1             :   0.111796700000000E+01  s.
  Internal wall clock time zero  :           496509487.766  s.

  FHI-aims created a unique identifier for this run for later identification
  aims_uuid : 08FE52CE-0592-4293-A6CD-C2EBDDF84B8D

  Build configuration of the current instance of FHI-aims
  -------------------------------------------------------
  FHI-aims version      : 240605
  Commit number         : b001b2e18
  CMake host system     : Linux-6.5.0-41-generic
  CMake version         : 3.22.1
  Fortran compiler      : /opt/intel/oneapi/mpi/2021.12/bin/mpiifort (IntelLLVM) version 2024.1.0
  Fortran compiler flags: -fc=ifx -O3 -ip -fp-model precise
  C compiler            : /opt/intel/oneapi/mpi/2021.12/bin/mpiicc (IntelLLVM) version 2024.1.0
  C compiler flags      : -cc=icx -O3 -ip -fp-model precise -std=gnu99
  C++ compiler          : /opt/intel/oneapi/mpi/2021.12/bin/mpiicpc (IntelLLVM) version 2024.1.0
  C++ compiler flags    : -cxx=icpx -O3 -ip -fp-model precise -std=c++11
  HIP compiler          :
  HIP compiler flags    :
  HIP GPU arch          :
  Using MPI
  Using ScaLAPACK
  Using LibXC
  Using i-PI
  Using RLSY
  Linking against: /opt/intel/oneapi/mkl/2024.1/lib/intel64/libmkl_intel_lp64.so
                   /opt/intel/oneapi/mkl/2024.1/lib/intel64/libmkl_sequential.so
                   /opt/intel/oneapi/mkl/2024.1/lib/intel64/libmkl_core.so
                   /opt/intel/oneapi/mkl/2024.1/lib/intel64/libmkl_blacs_intelmpi_lp64.so
                   /opt/intel/oneapi/mkl/2024.1/lib/intel64/libmkl_scalapack_lp64.so
                   /opt/intel/oneapi/mkl/2024.1/lib/intel64/libmkl_core.so

  Using      128 parallel tasks.
  Task        0 on host RSL-arvutus reporting.
  Task        1 on host RSL-arvutus reporting.
  Task        2 on host RSL-arvutus reporting.
  Task        3 on host RSL-arvutus reporting.
  Task        4 on host RSL-arvutus reporting.
  Task        5 on host RSL-arvutus reporting.
  Task        6 on host RSL-arvutus reporting.
  Task        7 on host RSL-arvutus reporting.
  Task        8 on host RSL-arvutus reporting.
  Task        9 on host RSL-arvutus reporting.
  Task       10 on host RSL-arvutus reporting.
  Task       11 on host RSL-arvutus reporting.
  Task       12 on host RSL-arvutus reporting.
  Task       13 on host RSL-arvutus reporting.
  Task       14 on host RSL-arvutus reporting.
  Task       15 on host RSL-arvutus reporting.
  Task       16 on host RSL-arvutus reporting.
  Task       17 on host RSL-arvutus reporting.
  Task       18 on host RSL-arvutus reporting.
  Task       19 on host RSL-arvutus reporting.
  Task       20 on host RSL-arvutus reporting.
  Task       21 on host RSL-arvutus reporting.
  Task       22 on host RSL-arvutus reporting.
  Task       23 on host RSL-arvutus reporting.
  Task       24 on host RSL-arvutus reporting.
  Task       25 on host RSL-arvutus reporting.
  Task       26 on host RSL-arvutus reporting.
  Task       27 on host RSL-arvutus reporting.
  Task       28 on host RSL-arvutus reporting.
  Task       29 on host RSL-arvutus reporting.
  Task       30 on host RSL-arvutus reporting.
  Task       31 on host RSL-arvutus reporting.
  Task       32 on host RSL-arvutus reporting.
  Task       33 on host RSL-arvutus reporting.
  Task       34 on host RSL-arvutus reporting.
  Task       35 on host RSL-arvutus reporting.
  Task       36 on host RSL-arvutus reporting.
  Task       37 on host RSL-arvutus reporting.
  Task       38 on host RSL-arvutus reporting.
  Task       39 on host RSL-arvutus reporting.
  Task       40 on host RSL-arvutus reporting.
  Task       41 on host RSL-arvutus reporting.
  Task       42 on host RSL-arvutus reporting.
  Task       43 on host RSL-arvutus reporting.
  Task       44 on host RSL-arvutus reporting.
  Task       45 on host RSL-arvutus reporting.
  Task       46 on host RSL-arvutus reporting.
  Task       47 on host RSL-arvutus reporting.
  Task       48 on host RSL-arvutus reporting.
  Task       49 on host RSL-arvutus reporting.
  Task       50 on host RSL-arvutus reporting.
  Task       51 on host RSL-arvutus reporting.
  Task       52 on host RSL-arvutus reporting.
  Task       53 on host RSL-arvutus reporting.
  Task       54 on host RSL-arvutus reporting.
  Task       55 on host RSL-arvutus reporting.
  Task       56 on host RSL-arvutus reporting.
  Task       57 on host RSL-arvutus reporting.
  Task       58 on host RSL-arvutus reporting.
  Task       59 on host RSL-arvutus reporting.
  Task       60 on host RSL-arvutus reporting.
  Task       61 on host RSL-arvutus reporting.
  Task       62 on host RSL-arvutus reporting.
  Task       63 on host RSL-arvutus reporting.
  Task       64 on host RSL-arvutus reporting.
  Task       65 on host RSL-arvutus reporting.
  Task       66 on host RSL-arvutus reporting.
  Task       67 on host RSL-arvutus reporting.
  Task       68 on host RSL-arvutus reporting.
  Task       69 on host RSL-arvutus reporting.
  Task       70 on host RSL-arvutus reporting.
  Task       71 on host RSL-arvutus reporting.
  Task       72 on host RSL-arvutus reporting.
  Task       73 on host RSL-arvutus reporting.
  Task       74 on host RSL-arvutus reporting.
  Task       75 on host RSL-arvutus reporting.
  Task       76 on host RSL-arvutus reporting.
  Task       77 on host RSL-arvutus reporting.
  Task       78 on host RSL-arvutus reporting.
  Task       79 on host RSL-arvutus reporting.
  Task       80 on host RSL-arvutus reporting.
  Task       81 on host RSL-arvutus reporting.
  Task       82 on host RSL-arvutus reporting.
  Task       83 on host RSL-arvutus reporting.
  Task       84 on host RSL-arvutus reporting.
  Task       85 on host RSL-arvutus reporting.
  Task       86 on host RSL-arvutus reporting.
  Task       87 on host RSL-arvutus reporting.
  Task       88 on host RSL-arvutus reporting.
  Task       89 on host RSL-arvutus reporting.
  Task       90 on host RSL-arvutus reporting.
  Task       91 on host RSL-arvutus reporting.
  Task       92 on host RSL-arvutus reporting.
  Task       93 on host RSL-arvutus reporting.
  Task       94 on host RSL-arvutus reporting.
  Task       95 on host RSL-arvutus reporting.
  Task       96 on host RSL-arvutus reporting.
  Task       97 on host RSL-arvutus reporting.
  Task       98 on host RSL-arvutus reporting.
  Task       99 on host RSL-arvutus reporting.
  Task      100 on host RSL-arvutus reporting.
  Task      101 on host RSL-arvutus reporting.
  Task      102 on host RSL-arvutus reporting.
  Task      103 on host RSL-arvutus reporting.
  Task      104 on host RSL-arvutus reporting.
  Task      105 on host RSL-arvutus reporting.
  Task      106 on host RSL-arvutus reporting.
  Task      107 on host RSL-arvutus reporting.
  Task      108 on host RSL-arvutus reporting.
  Task      109 on host RSL-arvutus reporting.
  Task      110 on host RSL-arvutus reporting.
  Task      111 on host RSL-arvutus reporting.
  Task      112 on host RSL-arvutus reporting.
  Task      113 on host RSL-arvutus reporting.
  Task      114 on host RSL-arvutus reporting.
  Task      115 on host RSL-arvutus reporting.
  Task      116 on host RSL-arvutus reporting.
  Task      117 on host RSL-arvutus reporting.
  Task      118 on host RSL-arvutus reporting.
  Task      119 on host RSL-arvutus reporting.
  Task      120 on host RSL-arvutus reporting.
  Task      121 on host RSL-arvutus reporting.
  Task      122 on host RSL-arvutus reporting.
  Task      123 on host RSL-arvutus reporting.
  Task      124 on host RSL-arvutus reporting.
  Task      125 on host RSL-arvutus reporting.
  Task      126 on host RSL-arvutus reporting.
  Task      127 on host RSL-arvutus reporting.

  Memory overcommitment is allowed on your operating system.

  Obtaining array dimensions for all initial allocations:
  
  -----------------------------------------------------------------------
  Parsing control.in (first pass over file, find array dimensions only).
  The contents of control.in will be repeated verbatim below
  unless switched off by setting 'verbatim_writeout .false.' .
  in the first line of control.in .
  -----------------------------------------------------------------------
  
    xc              pbe
    relativistic    atomic_zora scalar
    k_grid          3 3 5
  
    output          Mulliken
  
  
  ################################################################################
  #
  #  FHI-aims code project
  #  VB, Fritz-Haber Institut, 2009
  #
  #  Suggested "light" defaults for Ti atom (to be pasted into control.in file)
  #  Be sure to double-check any results obtained with these settings for post-processing,
  #  e.g., with the "tight" defaults and larger basis sets.
  #
  ################################################################################
    species        Ti
  #     global species definitions
      nucleus             22
      mass                47.867
  #
      l_hartree           4
  #
      cut_pot             3.5          1.5  1.0
      basis_dep_cutoff    1e-4
  #
      radial_base         48 5.0
      radial_multiplier   1
      angular_grids       specified
        division   0.5171   50
        division   0.9824  110
        division   1.2917  194
        division   1.4940  302
  #      division   1.6934  434
  #      division   1.8425  590
  #      division   2.1901  770
  #      division   2.2896  974
  #      division   2.8244 1202
  #      outer_grid  974
        outer_grid  302
  ################################################################################
  #
  #  Definition of "minimal" basis
  #
  ################################################################################
  #     valence basis states
      valence      4  s   2.
      valence      3  p   6.
      valence      3  d   2.
  #     ion occupancy
      ion_occ      4  s   1.
      ion_occ      3  p   6.
      ion_occ      3  d   1.
  ################################################################################
  #
  #  Suggested additional basis functions. For production calculations,
  #  uncomment them one after another (the most important basis functions are
  #  listed first).
  #
  #  Constructed for dimers: 1.6 A, 1.85 A, 2.5 A, 3.25 A, 4.25 A
  #
  ################################################################################
  #  "First tier" - improvements: -396.25 meV to -19.41 meV
       hydro 4 f 8
       hydro 3 d 2.7
       ionic 4 p auto
  #     hydro 5 g 11.6
       ionic 4 s auto
  #  "Second tier" - improvements: -16.30 meV to -2.03 meV
  #     hydro 3 d 4.4
  #     hydro 6 h 16
  #     hydro 4 f 9.4
  #     hydro 4 p 4.5
  #     hydro 1 s 0.5
  #  "Third tier" - improvements: -6.28 meV to -0.37 meV
  #     hydro 4 d 6.4
  #     hydro 4 f 10
  #     hydro 5 g 12
  #     hydro 2 p 1.7
  #     hydro 6 h 16.4
  #     hydro 4 s 3.8
  #  Further basis functions: -0.45 meV and smaller improvements
  #     hydro 3 d 8.8
  #     hydro 5 p 18
  #     hydro 4 f 22.4
  #     hydro 5 f 7.2  # -0.16 meV
  #     hydro 3 d 2.1  # -0.11 meV
  #     hydro 5 g 7.4  # -0.09 meV
  
  
  ################################################################################
  #
  #  FHI-aims code project
  #  VB, Fritz-Haber Institut, 2009
  #
  #  Suggested "light" defaults for O atom (to be pasted into control.in file)
  #  Be sure to double-check any results obtained with these settings for post-processing,
  #  e.g., with the "tight" defaults and larger basis sets.
  #
  ################################################################################
    species        O
  #     global species definitions
      nucleus             8
      mass                15.9994
  #
      l_hartree           4
  #
      cut_pot             3.5  1.5  1.0
      basis_dep_cutoff    1e-4
  #
      radial_base         36 5.0
      radial_multiplier   1
       angular_grids specified
        division   0.2659   50
        division   0.4451  110
        division   0.6052  194
        division   0.7543  302
  #      division   0.8014  434
  #      division   0.8507  590
  #      division   0.8762  770
  #      division   0.9023  974
  #      division   1.2339 1202
  #      outer_grid 974
        outer_grid 302
  ################################################################################
  #
  #  Definition of "minimal" basis
  #
  ################################################################################
  #     valence basis states
      valence      2  s   2.
      valence      2  p   4.
  #     ion occupancy
      ion_occ      2  s   1.
      ion_occ      2  p   3.
  ################################################################################
  #
  #  Suggested additional basis functions. For production calculations,
  #  uncomment them one after another (the most important basis functions are
  #  listed first).
  #
  #  Constructed for dimers: 1.0 A, 1.208 A, 1.5 A, 2.0 A, 3.0 A
  #
  ################################################################################
  #  "First tier" - improvements: -699.05 meV to -159.38 meV
       hydro 2 p 1.8
       hydro 3 d 7.6
       hydro 3 s 6.4
  #  "Second tier" - improvements: -49.91 meV to -5.39 meV
  #     hydro 4 f 11.6
  #     hydro 3 p 6.2
  #     hydro 3 d 5.6
  #     hydro 5 g 17.6
  #     hydro 1 s 0.75
  #  "Third tier" - improvements: -2.83 meV to -0.50 meV
  #     ionic 2 p auto
  #     hydro 4 f 10.8
  #     hydro 4 d 4.7
  #     hydro 2 s 6.8
  #  "Fourth tier" - improvements: -0.40 meV to -0.12 meV
  #     hydro 3 p 5
  #     hydro 3 s 3.3
  #     hydro 5 g 15.6
  #     hydro 4 f 17.6
  #     hydro 4 d 14
  # Further basis functions - -0.08 meV and below
  #     hydro 3 s 2.1
  #     hydro 4 d 11.6
  #     hydro 3 p 16
  #     hydro 2 s 17.2
  
  -----------------------------------------------------------------------
  Completed first pass over input file control.in .
  -----------------------------------------------------------------------
  
  
  -----------------------------------------------------------------------
  Parsing geometry.in (first pass over file, find array dimensions only).
  The contents of geometry.in will be repeated verbatim below
  unless switched off by setting 'verbatim_writeout .false.' .
  in the first line of geometry.in .
  -----------------------------------------------------------------------
  
  lattice_vector 13.929185 0.000365 0.000000
  lattice_vector 0.000365 13.929260 0.000000
  lattice_vector 0.000000 0.000000 8.918648
  
  atom_frac 1.000000 0.000000 0.000000 Ti
  atom_frac 0.166667 0.166667 0.166667 Ti
  atom_frac 0.101853 0.101856 0.000000 F
  atom_frac 0.231481 0.231478 0.000000 O
  atom_frac 0.064815 0.268521 0.166667 O
  atom_frac 0.268518 0.064812 0.166667 O
  atom_frac 1.000000 0.000000 0.333333 Ti
  atom_frac 0.166667 0.166667 0.500000 Ti
  atom_frac 0.101853 0.101856 0.333333 O
  atom_frac 0.231481 0.231478 0.333333 O
  atom_frac 0.064815 0.268521 0.500000 O
  atom_frac 0.268518 0.064812 0.500000 O
  atom_frac 1.000000 0.000000 0.666667 Ti
  atom_frac 0.166667 0.166667 0.833333 Ti
  atom_frac 0.101853 0.101856 0.666667 O
  atom_frac 0.231481 0.231478 0.666667 O
  atom_frac 0.064815 0.268521 0.833333 O
  atom_frac 0.268518 0.064812 0.833333 O
  atom_frac 1.000000 0.333333 0.000000 Ti
  atom_frac 0.166667 0.500000 0.166667 Ti
  atom_frac 0.101853 0.435189 0.000000 O
  atom_frac 0.231481 0.564811 0.000000 O
  atom_frac 0.064815 0.601854 0.166667 O
  atom_frac 0.268518 0.398146 0.166667 O
  atom_frac 1.000000 0.333333 0.333333 Ti
  atom_frac 0.166667 0.500000 0.500000 Ti
  atom_frac 0.101853 0.435189 0.333333 O
  atom_frac 0.231481 0.564811 0.333333 O
  atom_frac 0.064815 0.601854 0.500000 O
  atom_frac 0.268518 0.398146 0.500000 O
  atom_frac 1.000000 0.333333 0.666667 Ti
  atom_frac 0.166667 0.500000 0.833333 Ti
  atom_frac 0.101853 0.435189 0.666667 O
  atom_frac 0.231481 0.564811 0.666667 O
  atom_frac 0.064815 0.601854 0.833333 O
  atom_frac 0.268518 0.398146 0.833333 O
  atom_frac 1.000000 0.666667 0.000000 Ti
  atom_frac 0.166667 0.833333 0.166667 Ti
  atom_frac 0.101853 0.768522 0.000000 O
  atom_frac 0.231481 0.898144 0.000000 O
  atom_frac 0.064815 0.935188 0.166667 O
  atom_frac 0.268518 0.731479 0.166667 O
  atom_frac 1.000000 0.666667 0.333333 Ti
  atom_frac 0.166667 0.833333 0.500000 Ti
  atom_frac 0.101853 0.768522 0.333333 O
  atom_frac 0.231481 0.898144 0.333333 O
  atom_frac 0.064815 0.935188 0.500000 O
  atom_frac 0.268518 0.731479 0.500000 O
  atom_frac 1.000000 0.666667 0.666667 Ti
  atom_frac 0.166667 0.833333 0.833333 Ti
  atom_frac 0.101853 0.768522 0.666667 O
  atom_frac 0.231481 0.898144 0.666667 O
  atom_frac 0.064815 0.935188 0.833333 O
  atom_frac 0.268518 0.731479 0.833333 O
  atom_frac 0.333333 0.000000 0.000000 Ti
  atom_frac 0.500000 0.166667 0.166667 Ti
  atom_frac 0.435186 0.101856 0.000000 O
  atom_frac 0.564814 0.231478 0.000000 O
  atom_frac 0.398149 0.268521 0.166667 O
  atom_frac 0.601851 0.064812 0.166667 O
  atom_frac 0.333333 0.000000 0.333333 Ti
  atom_frac 0.500000 0.166667 0.500000 Ti
  atom_frac 0.435186 0.101856 0.333333 O
  atom_frac 0.564814 0.231478 0.333333 O
  atom_frac 0.398149 0.268521 0.500000 O
  atom_frac 0.601851 0.064812 0.500000 O
  atom_frac 0.333333 0.000000 0.666667 Ti
  atom_frac 0.500000 0.166667 0.833333 Ti
  atom_frac 0.435186 0.101856 0.666667 O
  atom_frac 0.564814 0.231478 0.666667 O
  atom_frac 0.398149 0.268521 0.833333 O
  atom_frac 0.601851 0.064812 0.833333 O
  atom_frac 0.333333 0.333333 0.000000 Ti
  atom_frac 0.500000 0.500000 0.166667 Ti
  atom_frac 0.435186 0.435189 0.000000 O
  atom_frac 0.564814 0.564811 0.000000 O
  atom_frac 0.398149 0.601854 0.166667 O
  atom_frac 0.601851 0.398146 0.166667 O
  atom_frac 0.333333 0.333333 0.333333 Ti
  atom_frac 0.500000 0.500000 0.500000 Ti
  atom_frac 0.435186 0.435189 0.333333 O
  atom_frac 0.564814 0.564811 0.333333 O
  atom_frac 0.398149 0.601854 0.500000 O
  atom_frac 0.601851 0.398146 0.500000 O
  atom_frac 0.333333 0.333333 0.666667 Ti
  atom_frac 0.500000 0.500000 0.833333 Ti
  atom_frac 0.435186 0.435189 0.666667 O
  atom_frac 0.564814 0.564811 0.666667 O
  atom_frac 0.398149 0.601854 0.833333 O
  atom_frac 0.601851 0.398146 0.833333 O
  atom_frac 0.333333 0.666667 0.000000 Ti
  atom_frac 0.500000 0.833333 0.166667 Ti
  atom_frac 0.435186 0.768522 0.000000 O
  atom_frac 0.564814 0.898144 0.000000 O
  atom_frac 0.398149 0.935188 0.166667 O
  atom_frac 0.601851 0.731479 0.166667 O
  atom_frac 0.333333 0.666667 0.333333 Ti
  atom_frac 0.500000 0.833333 0.500000 Ti
  atom_frac 0.435186 0.768522 0.333333 O
  atom_frac 0.564814 0.898144 0.333333 O
  atom_frac 0.398149 0.935188 0.500000 O
  atom_frac 0.601851 0.731479 0.500000 O
  atom_frac 0.333333 0.666667 0.666667 Ti
  atom_frac 0.500000 0.833333 0.833333 Ti
  atom_frac 0.435186 0.768522 0.666667 O
  atom_frac 0.564814 0.898144 0.666667 O
  atom_frac 0.398149 0.935188 0.833333 O
  atom_frac 0.601851 0.731479 0.833333 O
  atom_frac 0.666667 0.000000 0.000000 Ti
  atom_frac 0.833333 0.166667 0.166667 Ti
  atom_frac 0.768519 0.101856 0.000000 O
  atom_frac 0.898147 0.231478 0.000000 O
  atom_frac 0.731482 0.268521 0.166667 O
  atom_frac 0.935185 0.064812 0.166667 O
  atom_frac 0.666667 0.000000 0.333333 Ti
  atom_frac 0.833333 0.166667 0.500000 Ti
  atom_frac 0.768519 0.101856 0.333333 O
  atom_frac 0.898147 0.231478 0.333333 O
  atom_frac 0.731482 0.268521 0.500000 O
  atom_frac 0.935185 0.064812 0.500000 O
  atom_frac 0.666667 0.000000 0.666667 Ti
  atom_frac 0.833333 0.166667 0.833333 Ti
  atom_frac 0.768519 0.101856 0.666667 O
  atom_frac 0.898147 0.231478 0.666667 O
  atom_frac 0.731482 0.268521 0.833333 O
  atom_frac 0.935185 0.064812 0.833333 O
  atom_frac 0.666667 0.333333 0.000000 Ti
  atom_frac 0.833333 0.500000 0.166667 Ti
  atom_frac 0.768519 0.435189 0.000000 O
  atom_frac 0.898147 0.564811 0.000000 O
  atom_frac 0.731482 0.601854 0.166667 O
  atom_frac 0.935185 0.398146 0.166667 O
  atom_frac 0.666667 0.333333 0.333333 Ti
  atom_frac 0.833333 0.500000 0.500000 Ti
  atom_frac 0.768519 0.435189 0.333333 O
  atom_frac 0.898147 0.564811 0.333333 O
  atom_frac 0.731482 0.601854 0.500000 O
  atom_frac 0.935185 0.398146 0.500000 O
  atom_frac 0.666667 0.333333 0.666667 Ti
  atom_frac 0.833333 0.500000 0.833333 Ti
  atom_frac 0.768519 0.435189 0.666667 O
  atom_frac 0.898147 0.564811 0.666667 O
  atom_frac 0.731482 0.601854 0.833333 O
  atom_frac 0.935185 0.398146 0.833333 O
  atom_frac 0.666667 0.666667 0.000000 Ti
  atom_frac 0.833333 0.833333 0.166667 Ti
  atom_frac 0.768519 0.768522 0.000000 O
  atom_frac 0.898147 0.898144 0.000000 O
  atom_frac 0.731482 0.935188 0.166667 O
  atom_frac 0.935185 0.731479 0.166667 O
  atom_frac 0.666667 0.666667 0.333333 Ti
  atom_frac 0.833333 0.833333 0.500000 Ti
  atom_frac 0.768519 0.768522 0.333333 O
  atom_frac 0.898147 0.898144 0.333333 O
  atom_frac 0.731482 0.935188 0.500000 O
  atom_frac 0.935185 0.731479 0.500000 O
  atom_frac 0.666667 0.666667 0.666667 Ti
  atom_frac 0.833333 0.833333 0.833333 Ti
  atom_frac 0.768519 0.768522 0.666667 O
  atom_frac 0.898147 0.898144 0.666667 O
  atom_frac 0.731482 0.935188 0.833333 O
  atom_frac 0.935185 0.731479 0.833333 O
  
  -----------------------------------------------------------------------
  Completed first pass over input file geometry.in .
  -----------------------------------------------------------------------
  

  Basic array size parameters:
  | Number of species                 :        2
  | Number of atoms                   :      162
  | Number of lattice vectors         :        3
  | Max. basis fn. angular momentum   :        3
  | Max. atomic/ionic basis occupied n:        4
  | Max. number of basis fn. types    :        3
  | Max. radial fns per species/type  :        7
  | Max. logarithmic grid size        :     1383
  | Max. radial integration grid size :       48
  | Max. angular integration grid size:      302
  | Max. angular grid division number :        8
  | Radial grid for Hartree potential :     1383
  | Number of spin channels           :        1

------------------------------------------------------------
          Reading file control.in.
------------------------------------------------------------
  XC: Using PBE gradient-corrected functionals.
  Scalar relativistic treatment of kinetic energy: on-site free-atom approximation to ZORA.
  Found k-point grid:         3         3         5
  Mulliken charge analysis will be performed and summarised to the main output.
  Full Mulliken charge analysis will be written to file 'Mulliken.out'.
 
  Reading configuration options for species Ti                  .
  | Found nuclear charge :  22.0000
  | Found atomic mass :    47.8670000000000      amu
  | Found l_max for Hartree potential  :   4
  | Found cutoff potl. onset [A], width [A], scale factor :    3.50000    1.50000    1.00000
  | Threshold for basis-dependent cutoff potential is   0.100000E-03
  | Found data for basic radial integration grid :    48 points, outermost radius =    5.000 A
  | Found multiplier for basic radial grid :   1
  | Found angular grid specification: user-specified.
  | Specified grid contains     5 separate shells.
  | Check grid settings after all constraints further below.
  | Found free-atom valence shell :  4 s   2.000
  | Found free-atom valence shell :  3 p   6.000
  | Found free-atom valence shell :  3 d   2.000
  | Found free-ion valence shell :  4 s   1.000
  | Found free-ion valence shell :  3 p   6.000
  | Found free-ion valence shell :  3 d   1.000
  | Found hydrogenic basis function :  4 f   8.000
  | Found hydrogenic basis function :  3 d   2.700
  | Found ionic basis function :  4 p , default cutoff radius.
  | Found ionic basis function :  4 s , default cutoff radius.
 | Encountered keyword species, ending the description of species Ti                  .
  Species Ti                  : Missing cutoff potential type.
  Defaulting to exp(1/x)/(1-x)^2 type cutoff potential.
  Species Ti: No 'logarithmic' tag. Using default grid for free atom:
  | Default logarithmic grid data [bohr] : 0.1000E-03 0.1000E+03 0.1012E+01
  | Will include ionic basis functions of  2.0-fold positive Ti                   ion.
  Species Ti: On-site basis accuracy parameter (for Gram-Schmidt orthonormalisation) not specified.
  Using default value basis_acc =  0.1000000E-03.
  Species Ti                  : Using default innermost maximum threshold i_radial=  2 for radial functions.
  Species Ti                  : Default cutoff onset for free atom density etc. : 0.35000000E+01 AA.
  Species Ti                  : Basic radial grid will be enhanced according to radial_multiplier =   1, to contain    48 grid points.
 
  Reading configuration options for species O                   .
  | Found nuclear charge :   8.0000
  | Found atomic mass :    15.9994000000000      amu
  | Found l_max for Hartree potential  :   4
  | Found cutoff potl. onset [A], width [A], scale factor :    3.50000    1.50000    1.00000
  | Threshold for basis-dependent cutoff potential is   0.100000E-03
  | Found data for basic radial integration grid :    36 points, outermost radius =    5.000 A
  | Found multiplier for basic radial grid :   1
  | Found angular grid specification: user-specified.
  | Specified grid contains     5 separate shells.
  | Check grid settings after all constraints further below.
  | Found free-atom valence shell :  2 s   2.000
  | Found free-atom valence shell :  2 p   4.000
  | Found free-ion valence shell :  2 s   1.000
  | Found free-ion valence shell :  2 p   3.000
  | Found hydrogenic basis function :  2 p   1.800
  | Found hydrogenic basis function :  3 d   7.600
  | Found hydrogenic basis function :  3 s   6.400
  Species O                   : Missing cutoff potential type.
  Defaulting to exp(1/x)/(1-x)^2 type cutoff potential.
  Species O : No 'logarithmic' tag. Using default grid for free atom:
  | Default logarithmic grid data [bohr] : 0.1000E-03 0.1000E+03 0.1012E+01
  Species O : On-site basis accuracy parameter (for Gram-Schmidt orthonormalisation) not specified.
  Using default value basis_acc =  0.1000000E-03.
  Species O                   : Using default innermost maximum threshold i_radial=  2 for radial functions.
  Species O                   : Default cutoff onset for free atom density etc. : 0.35000000E+01 AA.
  Species O                   : Basic radial grid will be enhanced according to radial_multiplier =   1, to contain    36 grid points.
 *** Proc   20 in read_geo: Non-existent species definition found while reading geometry.in
 
 *** Proc   24 in read_geo: Non-existent species definition found while reading geometry.in
 
 *** Proc   66 in read_geo: Non-existent species definition found while reading geometry.in
 
 *** Proc   67 in read_geo: Non-existent species definition found while reading geometry.in
 
 *** Proc   72 in read_geo: Non-existent species definition found while reading geometry.in
 
 *** Proc   75 in read_geo: Non-existent species definition found while reading geometry.in
 
 *** Proc   90 in read_geo: Non-existent species definition found while reading geometry.in
 
 *** Proc   98 in read_geo: Non-existent species definition found while reading geometry.in
 
 *** Proc  121 in read_geo: Non-existent species definition found while reading geometry.in
 
 
  Finished reading input file 'control.in'.
 
------------------------------------------------------------

 *** Proc    5 in read_geo: Non-existent species definition found while reading geometry.in
 
 *** Proc    5 in read_geo: Non-existent species definition found while reading geometry.in
 
Abort(0) on node 5 (rank 5 in comm 0): application called MPI_Abort(MPI_COMM_WORLD, 0) - process 5
 *** Proc    7 in read_geo: Non-existent species definition found while reading geometry.in
 
 *** Proc    7 in read_geo: Non-existent species definition found while reading geometry.in
 
Abort(0) on node 7 (rank 7 in comm 0): application called MPI_Abort(MPI_COMM_WORLD, 0) - process 7
 *** Proc   20 in read_geo: Non-existent species definition found while reading geometry.in
 
Abort(0) on node 20 (rank 20 in comm 0): application called MPI_Abort(MPI_COMM_WORLD, 0) - process 20
 *** Proc   24 in read_geo: Non-existent species definition found while reading geometry.in
 
Abort(0) on node 24 (rank 24 in comm 0): application called MPI_Abort(MPI_COMM_WORLD, 0) - process 24
 *** Proc   27 in read_geo: Non-existent species definition found while reading geometry.in
 
 *** Proc   30 in read_geo: Non-existent species definition found while reading geometry.in
 
 *** Proc   41 in read_geo: Non-existent species definition found while reading geometry.in
 
 *** Proc   47 in read_geo: Non-existent species definition found while reading geometry.in
 
 *** Proc   50 in read_geo: Non-existent species definition found while reading geometry.in
 
 *** Proc   50 in read_geo: Non-existent species definition found while reading geometry.in
 
Abort(0) on node 50 (rank 50 in comm 0): application called MPI_Abort(MPI_COMM_WORLD, 0) - process 50
 *** Proc   51 in read_geo: Non-existent species definition found while reading geometry.in
 
 *** Proc   52 in read_geo: Non-existent species definition found while reading geometry.in
 
 *** Proc   52 in read_geo: Non-existent species definition found while reading geometry.in
 
Abort(0) on node 52 (rank 52 in comm 0): application called MPI_Abort(MPI_COMM_WORLD, 0) - process 52
 *** Proc   59 in read_geo: Non-existent species definition found while reading geometry.in
 
 *** Proc   66 in read_geo: Non-existent species definition found while reading geometry.in
 
Abort(0) on node 66 (rank 66 in comm 0): application called MPI_Abort(MPI_COMM_WORLD, 0) - process 66
 *** Proc   67 in read_geo: Non-existent species definition found while reading geometry.in
 
Abort(0) on node 67 (rank 67 in comm 0): application called MPI_Abort(MPI_COMM_WORLD, 0) - process 67
 *** Proc   71 in read_geo: Non-existent species definition found while reading geometry.in
 
 *** Proc   71 in read_geo: Non-existent species definition found while reading geometry.in
 
Abort(0) on node 71 (rank 71 in comm 0): application called MPI_Abort(MPI_COMM_WORLD, 0) - process 71
 *** Proc   72 in read_geo: Non-existent species definition found while reading geometry.in
 
Abort(0) on node 72 (rank 72 in comm 0): application called MPI_Abort(MPI_COMM_WORLD, 0) - process 72
 *** Proc   74 in read_geo: Non-existent species definition found while reading geometry.in
 
 *** Proc   75 in read_geo: Non-existent species definition found while reading geometry.in
 
Abort(0) on node 75 (rank 75 in comm 0): application called MPI_Abort(MPI_COMM_WORLD, 0) - process 75
 *** Proc   78 in read_geo: Non-existent species definition found while reading geometry.in
 
 *** Proc   83 in read_geo: Non-existent species definition found while reading geometry.in
 
 *** Proc   90 in read_geo: Non-existent species definition found while reading geometry.in
 
Abort(0) on node 90 (rank 90 in comm 0): application called MPI_Abort(MPI_COMM_WORLD, 0) - process 90
 *** Proc   91 in read_geo: Non-existent species definition found while reading geometry.in
 
 *** Proc   98 in read_geo: Non-existent species definition found while reading geometry.in
 
Abort(0) on node 98 (rank 98 in comm 0): application called MPI_Abort(MPI_COMM_WORLD, 0) - process 98
 *** Proc  100 in read_geo: Non-existent species definition found while reading geometry.in
 
 *** Proc  100 in read_geo: Non-existent species definition found while reading geometry.in
 
Abort(0) on node 100 (rank 100 in comm 0): application called MPI_Abort(MPI_COMM_WORLD, 0) - process 100
 *** Proc  104 in read_geo: Non-existent species definition found while reading geometry.in
 
 *** Proc  104 in read_geo: Non-existent species definition found while reading geometry.in
 
Abort(0) on node 104 (rank 104 in comm 0): application called MPI_Abort(MPI_COMM_WORLD, 0) - process 104
 *** Proc  112 in read_geo: Non-existent species definition found while reading geometry.in
 
 *** Proc  121 in read_geo: Non-existent species definition found while reading geometry.in
 
Abort(0) on node 121 (rank 121 in comm 0): application called MPI_Abort(MPI_COMM_WORLD, 0) - process 121
 *** Proc  122 in read_geo: Non-existent species definition found while reading geometry.in
 
 *** Proc    6 in read_geo: Non-existent species definition found while reading geometry.in
 
 *** Proc    9 in read_geo: Non-existent species definition found while reading geometry.in
 
 *** Proc    9 in read_geo: Non-existent species definition found while reading geometry.in
 
Abort(0) on node 9 (rank 9 in comm 0): application called MPI_Abort(MPI_COMM_WORLD, 0) - process 9
 *** Proc   27 in read_geo: Non-existent species definition found while reading geometry.in
 
Abort(0) on node 27 (rank 27 in comm 0): application called MPI_Abort(MPI_COMM_WORLD, 0) - process 27
 *** Proc   28 in read_geo: Non-existent species definition found while reading geometry.in
 
 *** Proc   28 in read_geo: Non-existent species definition found while reading geometry.in
 
 *** Proc   30 in read_geo: Non-existent species definition found while reading geometry.in
 
Abort(0) on node 30 (rank 30 in comm 0): application called MPI_Abort(MPI_COMM_WORLD, 0) - process 30
 *** Proc   33 in read_geo: Non-existent species definition found while reading geometry.in
 
 *** Proc   33 in read_geo: Non-existent species definition found while reading geometry.in
 
Abort(0) on node 33 (rank 33 in comm 0): application called MPI_Abort(MPI_COMM_WORLD, 0) - process 33
 *** Proc   35 in read_geo: Non-existent species definition found while reading geometry.in
 
 *** Proc   36 in read_geo: Non-existent species definition found while reading geometry.in
 
 *** Proc   36 in read_geo: Non-existent species definition found while reading geometry.in
 
Abort(0) on node 36 (rank 36 in comm 0): application called MPI_Abort(MPI_COMM_WORLD, 0) - process 36
 *** Proc   38 in read_geo: Non-existent species definition found while reading geometry.in
 
 *** Proc   38 in read_geo: Non-existent species definition found while reading geometry.in
 
Abort(0) on node 38 (rank 38 in comm 0): application called MPI_Abort(MPI_COMM_WORLD, 0) - process 38
 *** Proc   39 in read_geo: Non-existent species definition found while reading geometry.in
 
 *** Proc   39 in read_geo: Non-existent species definition found while reading geometry.in
 
Abort(0) on node 39 (rank 39 in comm 0): application called MPI_Abort(MPI_COMM_WORLD, 0) - process 39
 *** Proc   40 in read_geo: Non-existent species definition found while reading geometry.in
 
 *** Proc   41 in read_geo: Non-existent species definition found while reading geometry.in
 
Abort(0) on node 41 (rank 41 in comm 0): application called MPI_Abort(MPI_COMM_WORLD, 0) - process 41
 *** Proc   42 in read_geo: Non-existent species definition found while reading geometry.in
 
 *** Proc   42 in read_geo: Non-existent species definition found while reading geometry.in
 
Abort(0) on node 42 (rank 42 in comm 0): application called MPI_Abort(MPI_COMM_WORLD, 0) - process 42
 *** Proc   43 in read_geo: Non-existent species definition found while reading geometry.in
 
 *** Proc   43 in read_geo: Non-existent species definition found while reading geometry.in
 
Abort(0) on node 43 (rank 43 in comm 0): application called MPI_Abort(MPI_COMM_WORLD, 0) - process 43
 *** Proc   47 in read_geo: Non-existent species definition found while reading geometry.in
 
Abort(0) on node 47 (rank 47 in comm 0): application called MPI_Abort(MPI_COMM_WORLD, 0) - process 47
 *** Proc   49 in read_geo: Non-existent species definition found while reading geometry.in
 *** Proc   51 in read_geo: Non-existent species definition found while reading geometry.in
 
Abort(0) on node 51 (rank 51 in comm 0): application called MPI_Abort(MPI_COMM_WORLD, 0) - process 51
 *** Proc   53 in read_geo: Non-existent species definition found while reading geometry.in
 
 *** Proc   53 in read_geo: Non-existent species definition found while reading geometry.in
 
Abort(0) on node 53 (rank 53 in comm 0): application called MPI_Abort(MPI_COMM_WORLD, 0) - process 53
 *** Proc   55 in read_geo: Non-existent species definition found while reading geometry.in
 
 *** Proc   55 in read_geo: Non-existent species definition found while reading geometry.in
 
Abort(0) on node 55 (rank 55 in comm 0): application called MPI_Abort(MPI_COMM_WORLD, 0) - process 55
 *** Proc   58 in read_geo: Non-existent species definition found while reading geometry.in
 
 *** Proc   58 in read_geo: Non-existent species definition found while reading geometry.in
 
Abort(0) on node 58 (rank 58 in comm 0): application called MPI_Abort(MPI_COMM_WORLD, 0) - process 58
 *** Proc   59 in read_geo: Non-existent species definition found while reading geometry.in
 
Abort(0) on node 59 (rank 59 in comm 0): application called MPI_Abort(MPI_COMM_WORLD, 0) - process 59
 *** Proc   60 in read_geo: Non-existent species definition found while reading geometry.in
 
 *** Proc   61 in read_geo: Non-existent species definition found while reading geometry.in
 
 *** Proc   61 in read_geo: Non-existent species definition found while reading geometry.in
 
Abort(0) on node 61 (rank 61 in comm 0): application called MPI_Abort(MPI_COMM_WORLD, 0) - process 61
 *** Proc   62 in read_geo: Non-existent species definition found while reading geometry.in
 
 *** Proc   63 in read_geo: Non-existent species definition found while reading geometry.in
 
 *** Proc   64 in read_geo: Non-existent species definition found while reading geometry.in
 
 *** Proc   64 in read_geo: Non-existent species definition found while reading geometry.in
 
Abort(0) on node 64 (rank 64 in comm 0): application called MPI_Abort(MPI_COMM_WORLD, 0) - process 64
 *** Proc   65 in read_geo: Non-existent species definition found while reading geometry.in
 
 *** Proc   68 in read_geo: Non-existent species definition found while reading geometry.in
 
 *** Proc   68 in read_geo: Non-existent species definition found while reading geometry.in
 
Abort(0) on node 68 (rank 68 in comm 0): application called MPI_Abort(MPI_COMM_WORLD, 0) - process 68
 *** Proc   69 in read_geo: Non-existent species definition found while reading geometry.in
 
 *** Proc   69 in read_geo: Non-existent species definition found while reading geometry.in
 
Abort(0) on node 69 (rank 69 in comm 0): application called MPI_Abort(MPI_COMM_WORLD, 0) - process 69
 *** Proc   70 in read_geo: Non-existent species definition found while reading geometry.in
 
 *** Proc   70 in read_geo: Non-existent species definition found while reading geometry.in
 
Abort(0) on node 70 (rank 70 in comm 0): application called MPI_Abort(MPI_COMM_WORLD, 0) - process 70
 *** Proc   73 in read_geo: Non-existent species definition found while reading geometry.in
 
 *** Proc   73 in read_geo: Non-existent species definition found while reading geometry.in
 
Abort(0) on node 73 (rank 73 in comm 0): application called MPI_Abort(MPI_COMM_WORLD, 0) - process 73
 *** Proc   74 in read_geo: Non-existent species definition found while reading geometry.in
 
Abort(0) on node 74 (rank 74 in comm 0): application called MPI_Abort(MPI_COMM_WORLD, 0) - process 74
 *** Proc   76 in read_geo: Non-existent species definition found while reading geometry.in
 
 *** Proc   76 in read_geo: Non-existent species definition found while reading geometry.in
 
Abort(0) on node 76 (rank 76 in comm 0): application called MPI_Abort(MPI_COMM_WORLD, 0) - process 76
 *** Proc   77 in read_geo: Non-existent species definition found while reading geometry.in
 
 *** Proc   77 in read_geo: Non-existent species definition found while reading geometry.in
 
Abort(0) on node 77 (rank 77 in comm 0): application called MPI_Abort(MPI_COMM_WORLD, 0) - process 77
 *** Proc   78 in read_geo: Non-existent species definition found while reading geometry.in
 
Abort(0) on node 78 (rank 78 in comm 0): application called MPI_Abort(MPI_COMM_WORLD, 0) - process 78
 *** Proc   79 in read_geo: Non-existent species definition found while reading geometry.in
 
 *** Proc   79 in read_geo: Non-existent species definition found while reading geometry.in
 
Abort(0) on node 79 (rank 79 in comm 0): application called MPI_Abort(MPI_COMM_WORLD, 0) - process 79
 *** Proc   80 in read_geo: Non-existent species definition found while reading geometry.in
 
 *** Proc   80 in read_geo: Non-existent species definition found while reading geometry.in
 
Abort(0) on node 80 (rank 80 in comm 0): application called MPI_Abort(MPI_COMM_WORLD, 0) - process 80
 *** Proc   81 in read_geo: Non-existent species definition found while reading geometry.in
 
 *** Proc   81 in read_geo: Non-existent species definition found while reading geometry.in
 
Abort(0) on node 81 (rank 81 in comm 0): application called MPI_Abort(MPI_COMM_WORLD, 0) - process 81
 *** Proc   82 in read_geo: Non-existent species definition found while reading geometry.in
 
 *** Proc   82 in read_geo: Non-existent species definition found while reading geometry.in
 
Abort(0) on node 82 (rank 82 in comm 0): application called MPI_Abort(MPI_COMM_WORLD, 0) - process 82
 *** Proc   83 in read_geo: Non-existent species definition found while reading geometry.in
 
Abort(0) on node 83 (rank 83 in comm 0): application called MPI_Abort(MPI_COMM_WORLD, 0) - process 83
 *** Proc   84 in read_geo: Non-existent species definition found while reading geometry.in
 
 *** Proc   84 in read_geo: Non-existent species definition found while reading geometry.in
 
Abort(0) on node 84 (rank 84 in comm 0): application called MPI_Abort(MPI_COMM_WORLD, 0) - process 84
 *** Proc   85 in read_geo: Non-existent species definition found while reading geometry.in
 
 *** Proc   85 in read_geo: Non-existent species definition found while reading geometry.in
 
Abort(0) on node 85 (rank 85 in comm 0): application called MPI_Abort(MPI_COMM_WORLD, 0) - process 85
 *** Proc   86 in read_geo: Non-existent species definition found while reading geometry.in
 
 *** Proc   86 in read_geo: Non-existent species definition found while reading geometry.in
 
Abort(0) on node 86 (rank 86 in comm 0): application called MPI_Abort(MPI_COMM_WORLD, 0) - process 86
 *** Proc   87 in read_geo: Non-existent species definition found while reading geometry.in
 
 *** Proc   87 in read_geo: Non-existent species definition found while reading geometry.in
 
Abort(0) on node 87 (rank 87 in comm 0): application called MPI_Abort(MPI_COMM_WORLD, 0) - process 87
 *** Proc   88 in read_geo: Non-existent species definition found while reading geometry.in
 
 *** Proc   88 in read_geo: Non-existent species definition found while reading geometry.in
 
Abort(0) on node 88 (rank 88 in comm 0): application called MPI_Abort(MPI_COMM_WORLD, 0) - process 88
 *** Proc   89 in read_geo: Non-existent species definition found while reading geometry.in
 
 *** Proc   89 in read_geo: Non-existent species definition found while reading geometry.in
 
Abort(0) on node 89 (rank 89 in comm 0): application called MPI_Abort(MPI_COMM_WORLD, 0) - process 89
 *** Proc   91 in read_geo: Non-existent species definition found while reading geometry.in
 
Abort(0) on node 91 (rank 91 in comm 0): application called MPI_Abort(MPI_COMM_WORLD, 0) - process 91
 *** Proc   92 in read_geo: Non-existent species definition found while reading geometry.in
 
 *** Proc   92 in read_geo: Non-existent species definition found while reading geometry.in
 
Abort(0) on node 92 (rank 92 in comm 0): application called MPI_Abort(MPI_COMM_WORLD, 0) - process 92
 *** Proc   93 in read_geo: Non-existent species definition found while reading geometry.in
 
 *** Proc   93 in read_geo: Non-existent species definition found while reading geometry.in
 
Abort(0) on node 93 (rank 93 in comm 0): application called MPI_Abort(MPI_COMM_WORLD, 0) - process 93
 *** Proc   94 in read_geo: Non-existent species definition found while reading geometry.in
 
 *** Proc   94 in read_geo: Non-existent species definition found while reading geometry.in
 
Abort(0) on node 94 (rank 94 in comm 0): application called MPI_Abort(MPI_COMM_WORLD, 0) - process 94
 *** Proc   95 in read_geo: Non-existent species definition found while reading geometry.in
 
 *** Proc   95 in read_geo: Non-existent species definition found while reading geometry.in
 
Abort(0) on node 95 (rank 95 in comm 0): application called MPI_Abort(MPI_COMM_WORLD, 0) - process 95
 *** Proc   96 in read_geo: Non-existent species definition found while reading geometry.in
 
 *** Proc   96 in read_geo: Non-existent species definition found while reading geometry.in
 
Abort(0) on node 96 (rank 96 in comm 0): application called MPI_Abort(MPI_COMM_WORLD, 0) - process 96
 *** Proc   97 in read_geo: Non-existent species definition found while reading geometry.in
 
 *** Proc   97 in read_geo: Non-existent species definition found while reading geometry.in
 
Abort(0) on node 97 (rank 97 in comm 0): application called MPI_Abort(MPI_COMM_WORLD, 0) - process 97
 *** Proc   99 in read_geo: Non-existent species definition found while reading geometry.in
 
 *** Proc   99 in read_geo: Non-existent species definition found while reading geometry.in
 
Abort(0) on node 99 (rank 99 in comm 0): application called MPI_Abort(MPI_COMM_WORLD, 0) - process 99
 *** Proc  101 in read_geo: Non-existent species definition found while reading geometry.in
 
 *** Proc  101 in read_geo: Non-existent species definition found while reading geometry.in
 
Abort(0) on node 101 (rank 101 in comm 0): application called MPI_Abort(MPI_COMM_WORLD, 0) - process 101
 *** Proc  102 in read_geo: Non-existent species definition found while reading geometry.in
 
 *** Proc  102 in read_geo: Non-existent species definition found while reading geometry.in
 
Abort(0) on node 102 (rank 102 in comm 0): application called MPI_Abort(MPI_COMM_WORLD, 0) - process 102
 *** Proc  103 in read_geo: Non-existent species definition found while reading geometry.in
 
 *** Proc  103 in read_geo: Non-existent species definition found while reading geometry.in
 
Abort(0) on node 103 (rank 103 in comm 0): application called MPI_Abort(MPI_COMM_WORLD, 0) - process 103
 *** Proc  105 in read_geo: Non-existent species definition found while reading geometry.in
 
 *** Proc  105 in read_geo: Non-existent species definition found while reading geometry.in
 
Abort(0) on node 105 (rank 105 in comm 0): application called MPI_Abort(MPI_COMM_WORLD, 0) - process 105
 *** Proc  106 in read_geo: Non-existent species definition found while reading geometry.in
 
 *** Proc  106 in read_geo: Non-existent species definition found while reading geometry.in
 
Abort(0) on node 106 (rank 106 in comm 0): application called MPI_Abort(MPI_COMM_WORLD, 0) - process 106
 *** Proc  107 in read_geo: Non-existent species definition found while reading geometry.in
 
 *** Proc  107 in read_geo: Non-existent species definition found while reading geometry.in
 
Abort(0) on node 107 (rank 107 in comm 0): application called MPI_Abort(MPI_COMM_WORLD, 0) - process 107
 *** Proc  108 in read_geo: Non-existent species definition found while reading geometry.in
 
 *** Proc  108 in read_geo: Non-existent species definition found while reading geometry.in
 
Abort(0) on node 108 (rank 108 in comm 0): application called MPI_Abort(MPI_COMM_WORLD, 0) - process 108
 *** Proc  109 in read_geo: Non-existent species definition found while reading geometry.in
 
 *** Proc  109 in read_geo: Non-existent species definition found while reading geometry.in
 
Abort(0) on node 109 (rank 109 in comm 0): application called MPI_Abort(MPI_COMM_WORLD, 0) - process 109
 *** Proc  110 in read_geo: Non-existent species definition found while reading geometry.in
 
 *** Proc  110 in read_geo: Non-existent species definition found while reading geometry.in
 
Abort(0) on node 110 (rank 110 in comm 0): application called MPI_Abort(MPI_COMM_WORLD, 0) - process 110
 *** Proc  111 in read_geo: Non-existent species definition found while reading geometry.in
 
 *** Proc  111 in read_geo: Non-existent species definition found while reading geometry.in
 
Abort(0) on node 111 (rank 111 in comm 0): application called MPI_Abort(MPI_COMM_WORLD, 0) - process 111
 *** Proc  112 in read_geo: Non-existent species definition found while reading geometry.in
 
Abort(0) on node 112 (rank 112 in comm 0): application called MPI_Abort(MPI_COMM_WORLD, 0) - process 112
 *** Proc  113 in read_geo: Non-existent species definition found while reading geometry.in
 
 *** Proc  113 in read_geo: Non-existent species definition found while reading geometry.in
 
Abort(0) on node 113 (rank 113 in comm 0): application called MPI_Abort(MPI_COMM_WORLD, 0) - process 113
 *** Proc  114 in read_geo: Non-existent species definition found while reading geometry.in
 
 *** Proc  114 in read_geo: Non-existent species definition found while reading geometry.in
 
Abort(0) on node 114 (rank 114 in comm 0): application called MPI_Abort(MPI_COMM_WORLD, 0) - process 114
 *** Proc  115 in read_geo: Non-existent species definition found while reading geometry.in
 
 *** Proc  115 in read_geo: Non-existent species definition found while reading geometry.in
 
Abort(0) on node 115 (rank 115 in comm 0): application called MPI_Abort(MPI_COMM_WORLD, 0) - process 115
 *** Proc  116 in read_geo: Non-existent species definition found while reading geometry.in
 
 *** Proc  116 in read_geo: Non-existent species definition found while reading geometry.in
 
Abort(0) on node 116 (rank 116 in comm 0): application called MPI_Abort(MPI_COMM_WORLD, 0) - process 116
 *** Proc  117 in read_geo: Non-existent species definition found while reading geometry.in
 
 *** Proc  117 in read_geo: Non-existent species definition found while reading geometry.in
 
Abort(0) on node 117 (rank 117 in comm 0): application called MPI_Abort(MPI_COMM_WORLD, 0) - process 117
 *** Proc  118 in read_geo: Non-existent species definition found while reading geometry.in
 
 *** Proc  118 in read_geo: Non-existent species definition found while reading geometry.in
 
Abort(0) on node 118 (rank 118 in comm 0): application called MPI_Abort(MPI_COMM_WORLD, 0) - process 118
 *** Proc  119 in read_geo: Non-existent species definition found while reading geometry.in
 
 *** Proc  119 in read_geo: Non-existent species definition found while reading geometry.in
 
Abort(0) on node 119 (rank 119 in comm 0): application called MPI_Abort(MPI_COMM_WORLD, 0) - process 119
 *** Proc  120 in read_geo: Non-existent species definition found while reading geometry.in
 
 *** Proc  120 in read_geo: Non-existent species definition found while reading geometry.in
 
Abort(0) on node 120 (rank 120 in comm 0): application called MPI_Abort(MPI_COMM_WORLD, 0) - process 120
 *** Proc  122 in read_geo: Non-existent species definition found while reading geometry.in
 
Abort(0) on node 122 (rank 122 in comm 0): application called MPI_Abort(MPI_COMM_WORLD, 0) - process 122
 *** Proc  123 in read_geo: Non-existent species definition found while reading geometry.in
 
 *** Proc  123 in read_geo: Non-existent species definition found while reading geometry.in
 
Abort(0) on node 123 (rank 123 in comm 0): application called MPI_Abort(MPI_COMM_WORLD, 0) - process 123
 *** Proc  124 in read_geo: Non-existent species definition found while reading geometry.in
 
 *** Proc  124 in read_geo: Non-existent species definition found while reading geometry.in
 
Abort(0) on node 124 (rank 124 in comm 0): application called MPI_Abort(MPI_COMM_WORLD, 0) - process 124
 *** Proc  125 in read_geo: Non-existent species definition found while reading geometry.in
 
 *** Proc  125 in read_geo: Non-existent species definition found while reading geometry.in
 
Abort(0) on node 125 (rank 125 in comm 0): application called MPI_Abort(MPI_COMM_WORLD, 0) - process 125
 *** Proc  126 in read_geo: Non-existent species definition found while reading geometry.in
 
 *** Proc  126 in read_geo: Non-existent species definition found while reading geometry.in
 
Abort(0) on node 126 (rank 126 in comm 0): application called MPI_Abort(MPI_COMM_WORLD, 0) - process 126
 *** Proc  127 in read_geo: Non-existent species definition found while reading geometry.in
 
 *** Proc  127 in read_geo: Non-existent species definition found while reading geometry.in
 
Abort(0) on node 127 (rank 127 in comm 0): application called MPI_Abort(MPI_COMM_WORLD, 0) - process 127
