------------------------------------------------------------
          Invoking FHI-aims ...

          When using FHI-aims, please cite the following reference:

            Volker Blum, Ralf Gehrke, Felix Hanke, Paula Havu,
            Ville Havu, Xinguo Ren, Karsten Reuter, and Matthias Scheffler,
            'Ab Initio Molecular Simulations with Numeric Atom-Centered Orbitals',
            Computer Physics Communications 180, 2175-2196 (2009)

          In addition, many other developments in FHI-aims are likely important for
          your particular application. If so, please cite them. A partial list of references
          is written at the end of this file. Thank you for giving credit to the authors
          of these developments.

          For general information about FHI-aims please find us at

            https://fhi-aims.org

          Online tutorials can be found at

            https://fhi-aims-club.gitlab.io/tutorials/tutorials-overview/

          For any questions about FHI-aims, please visit our slack channel at

            https://fhi-aims.slack.com

          and our main development and support site at

            https://aims-git.rz-berlin.mpg.de .

          The latter site, in particular, has a wiki to collect information, as well
          as an issue tracker to log discussions, suggest improvements, and report issues
          or bugs. https://aims-git.rz-berlin.mpg.de is also the main development site
          of the project and all new and updated code versions can be obtained there.
          Please send an email to aims-coordinators@fhi-berlin.mpg.de and we will add
          you to these sites. They are for you and everyone is welcome there.

------------------------------------------------------------



  Date     :  20250311, Time     :  153552.677
  Time zero on CPU 1             :   0.436493000000000E+00  s.
  Internal wall clock time zero  :           510939352.677  s.

  FHI-aims created a unique identifier for this run for later identification
  aims_uuid : 41474E25-6416-445A-AD69-EBB019BE4B14

  Build configuration of the current instance of FHI-aims
  -------------------------------------------------------
  FHI-aims version      : 240605
  Commit number         : b001b2e18
  CMake host system     : Linux-6.5.0-41-generic
  CMake version         : 3.22.1
  Fortran compiler      : /opt/intel/oneapi/mpi/2021.12/bin/mpiifort (IntelLLVM) version 2024.1.0
  Fortran compiler flags: -fc=ifx -O3 -ip -fp-model precise
  C compiler            : /opt/intel/oneapi/mpi/2021.12/bin/mpiicc (IntelLLVM) version 2024.1.0
  C compiler flags      : -cc=icx -O3 -ip -fp-model precise -std=gnu99
  C++ compiler          : /opt/intel/oneapi/mpi/2021.12/bin/mpiicpc (IntelLLVM) version 2024.1.0
  C++ compiler flags    : -cxx=icpx -O3 -ip -fp-model precise -std=c++11
  HIP compiler          :
  HIP compiler flags    :
  HIP GPU arch          :
  Using MPI
  Using ScaLAPACK
  Using LibXC
  Using i-PI
  Using RLSY
  Linking against: /opt/intel/oneapi/mkl/2024.1/lib/intel64/libmkl_intel_lp64.so
                   /opt/intel/oneapi/mkl/2024.1/lib/intel64/libmkl_sequential.so
                   /opt/intel/oneapi/mkl/2024.1/lib/intel64/libmkl_core.so
                   /opt/intel/oneapi/mkl/2024.1/lib/intel64/libmkl_blacs_intelmpi_lp64.so
                   /opt/intel/oneapi/mkl/2024.1/lib/intel64/libmkl_scalapack_lp64.so
                   /opt/intel/oneapi/mkl/2024.1/lib/intel64/libmkl_core.so

  Using       32 parallel tasks.
  Task        0 on host RSL-arvutus reporting.
  Task        1 on host RSL-arvutus reporting.
  Task        2 on host RSL-arvutus reporting.
  Task        3 on host RSL-arvutus reporting.
  Task        4 on host RSL-arvutus reporting.
  Task        5 on host RSL-arvutus reporting.
  Task        6 on host RSL-arvutus reporting.
  Task        7 on host RSL-arvutus reporting.
  Task        8 on host RSL-arvutus reporting.
  Task        9 on host RSL-arvutus reporting.
  Task       10 on host RSL-arvutus reporting.
  Task       11 on host RSL-arvutus reporting.
  Task       12 on host RSL-arvutus reporting.
  Task       13 on host RSL-arvutus reporting.
  Task       14 on host RSL-arvutus reporting.
  Task       15 on host RSL-arvutus reporting.
  Task       16 on host RSL-arvutus reporting.
  Task       17 on host RSL-arvutus reporting.
  Task       18 on host RSL-arvutus reporting.
  Task       19 on host RSL-arvutus reporting.
  Task       20 on host RSL-arvutus reporting.
  Task       21 on host RSL-arvutus reporting.
  Task       22 on host RSL-arvutus reporting.
  Task       23 on host RSL-arvutus reporting.
  Task       24 on host RSL-arvutus reporting.
  Task       25 on host RSL-arvutus reporting.
  Task       26 on host RSL-arvutus reporting.
  Task       27 on host RSL-arvutus reporting.
  Task       28 on host RSL-arvutus reporting.
  Task       29 on host RSL-arvutus reporting.
  Task       30 on host RSL-arvutus reporting.
  Task       31 on host RSL-arvutus reporting.

  Memory overcommitment is allowed on your operating system.

  Obtaining array dimensions for all initial allocations:
  
  -----------------------------------------------------------------------
  Parsing control.in (first pass over file, find array dimensions only).
  The contents of control.in will be repeated verbatim below
  unless switched off by setting 'verbatim_writeout .false.' .
  in the first line of control.in .
  -----------------------------------------------------------------------
  
  xc                 pbe
  relativistic       atomic_zora scalar
  relax_geometry     bfgs 5e-3
  spin               none
  ################################################################################
  #
  #  FHI-aims code project
  #  Volker Blum, Fritz Haber Institute Berlin, 2009
  #
  #  Suggested "tight" defaults for O atom (to be pasted into control.in file)
  #
  ################################################################################
    species        O
  #     global species definitions
      nucleus             8
      mass                15.9994
  #
      l_hartree           6
  #
      cut_pot             4.0  2.0  1.0
      basis_dep_cutoff    1e-4
  #
      radial_base         36 7.0
      radial_multiplier   2
       angular_grids specified
        division   0.1817   50
        division   0.3417  110
        division   0.4949  194
        division   0.6251  302
        division   0.8014  434
  #      division   0.8507  590
  #      division   0.8762  770
  #      division   0.9023  974
  #      division   1.2339 1202
  #      outer_grid 974
        outer_grid  434
  ################################################################################
  #
  #  Definition of "minimal" basis
  #
  ################################################################################
  #     valence basis states
      valence      2  s   2.
      valence      2  p   4.
  #     ion occupancy
      ion_occ      2  s   1.
      ion_occ      2  p   3.
  ################################################################################
  #
  #  Suggested additional basis functions. For production calculations,
  #  uncomment them one after another (the most important basis functions are
  #  listed first).
  #
  #  Constructed for dimers: 1.0 A, 1.208 A, 1.5 A, 2.0 A, 3.0 A
  #
  ################################################################################
  #  "First tier" - improvements: -699.05 meV to -159.38 meV
       hydro 2 p 1.8
       hydro 3 d 7.6
       hydro 3 s 6.4
  #  "Second tier" - improvements: -49.91 meV to -5.39 meV
       hydro 4 f 11.6
       hydro 3 p 6.2
       hydro 3 d 5.6
       hydro 5 g 17.6
       hydro 1 s 0.75
  #  "Third tier" - improvements: -2.83 meV to -0.50 meV
  #     ionic 2 p auto
  #     hydro 4 f 10.8
  #     hydro 4 d 4.7
  #     hydro 2 s 6.8
  #  "Fourth tier" - improvements: -0.40 meV to -0.12 meV
  #     hydro 3 p 5
  #     hydro 3 s 3.3
  #     hydro 5 g 15.6
  #     hydro 4 f 17.6
  #     hydro 4 d 14
  # Further basis functions - -0.08 meV and below
  #     hydro 3 s 2.1
  #     hydro 4 d 11.6
  #     hydro 3 p 16
  #     hydro 2 s 17.2
  ################################################################################
  #
  # For methods that use the localized form of the "resolution of identity" for
  # the two-electron Coulomb operator (RI_method LVL), particularly Hartree-Fock and
  # hybrid density functional calculations, the highest accuracy can be obtained by
  # uncommenting the line beginning with "for_aux"  below, thus adding an extra g radial
  # function to the construction of the product basis set for the expansion.
  # See Ref. New J. Phys. 17, 093020 (2015) for more information, particularly Figs. 1 and 6.
  #
  ################################################################################
  #
  # for_aux hydro 5 g 6.0
  ################################################################################
  #
  #  FHI-aims code project
  #  Volker Blum, Fritz Haber Institute Berlin, 2009
  #
  #  Suggested "tight" defaults for H atom (to be pasted into control.in file)
  #
  ################################################################################
    species        H
  #     global species definitions
      nucleus             1
      mass                1.00794
  #
      l_hartree           6
  #
      cut_pot             4.0  2.0  1.0
      basis_dep_cutoff    1e-4
  #
      radial_base         24 7.0
      radial_multiplier   2
      angular_grids       specified
        division   0.1930   50
        division   0.3175  110
        division   0.4293  194
        division   0.5066  302
        division   0.5626  434
  #      division   0.5922  590
  #      division   0.6227  974
  #      division   0.6868 1202
  #      outer_grid  770
        outer_grid  434
  ################################################################################
  #
  #  Definition of "minimal" basis
  #
  ################################################################################
  #     valence basis states
      valence      1  s   1.
  #     ion occupancy
      ion_occ      1  s   0.5
  ################################################################################
  #
  #  Suggested additional basis functions. For production calculations,
  #  uncomment them one after another (the most important basis functions are
  #  listed first).
  #
  #  Basis constructed for dimers: 0.5 A, 0.7 A, 1.0 A, 1.5 A, 2.5 A
  #
  ################################################################################
  #  "First tier" - improvements: -1014.90 meV to -62.69 meV
       hydro 2 s 2.1
       hydro 2 p 3.5
  #  "Second tier" - improvements: -12.89 meV to -1.83 meV
       hydro 1 s 0.85
       hydro 2 p 3.7
       hydro 2 s 1.2
       hydro 3 d 7
  #  "Third tier" - improvements: -0.25 meV to -0.12 meV
  #     hydro 4 f 11.2
  #     hydro 3 p 4.8
  #     hydro 4 d 9
  #     hydro 3 s 3.2
  ################################################################################
  #
  # For methods that use the localized form of the "resolution of identity" for
  # the two-electron Coulomb operator (RI_method LVL), particularly Hartree-Fock and
  # hybrid density functional calculations, the highest accuracy can be obtained by
  # uncommenting the line beginning with "for_aux"  below, thus adding an extra g radial
  # function to the construction of the product basis set for the expansion.
  # See Ref. New J. Phys. 17, 093020 (2015) for more information, particularly Figs. 1 and 6.
  #
  ################################################################################
  #
  # for_aux hydro 5 g 6.0
  ################################################################################
  #
  #  FHI-aims code project
  #  Volker Blum, Fritz Haber Institute Berlin, 2009
  #
  #  Suggested "tight" defaults for C atom (to be pasted into control.in file)
  #
  ################################################################################
    species        C
  #     global species definitions
      nucleus             6
      mass                12.0107
  #
      l_hartree           6
  #
      cut_pot             4.0  2.0  1.0
      basis_dep_cutoff    1e-4
  #
      radial_base         34 7.0
      radial_multiplier   2
      angular_grids specified
        division   0.2187   50
        division   0.4416  110
        division   0.6335  194
        division   0.7727  302
        division   0.8772  434
  #      division   0.9334  590
  #      division   0.9924  770
  #      division   1.0230  974
  #      division   1.5020 1202
  #     outer_grid  974
        outer_grid  434
  ################################################################################
  #
  #  Definition of "minimal" basis
  #
  ################################################################################
  #     valence basis states
      valence      2  s   2.
      valence      2  p   2.
  #     ion occupancy
      ion_occ      2  s   1.
      ion_occ      2  p   1.
  ################################################################################
  #
  #  Suggested additional basis functions. For production calculations,
  #  uncomment them one after another (the most important basis functions are
  #  listed first).
  #
  #  Constructed for dimers: 1.0 A, 1.25 A, 1.5 A, 2.0 A, 3.0 A
  #
  ################################################################################
  #  "First tier" - improvements: -1214.57 meV to -155.61 meV
       hydro 2 p 1.7
       hydro 3 d 6
       hydro 2 s 4.9
  #  "Second tier" - improvements: -67.75 meV to -5.23 meV
       hydro 4 f 9.8
       hydro 3 p 5.2
       hydro 3 s 4.3
       hydro 5 g 14.4
       hydro 3 d 6.2
  #  "Third tier" - improvements: -2.43 meV to -0.60 meV
  #     hydro 2 p 5.6
  #     hydro 2 s 1.4
  #     hydro 3 d 4.9
  #     hydro 4 f 11.2
  #  "Fourth tier" - improvements: -0.39 meV to -0.18 meV
  #     hydro 2 p 2.1
  #     hydro 5 g 16.4
  #     hydro 4 d 13.2
  #     hydro 3 s 13.6
  #     hydro 4 f 17.6
  #  Further basis functions - improvements: -0.08 meV and below
  #     hydro 3 s 2
  #     hydro 3 p 6
  #     hydro 4 d 20
  ################################################################################
  #
  # For methods that use the localized form of the "resolution of identity" for
  # the two-electron Coulomb operator (RI_method LVL), particularly Hartree-Fock and
  # hybrid density functional calculations, the highest accuracy can be obtained by
  # uncommenting the line beginning with "for_aux"  below, thus adding an extra g radial
  # function to the construction of the product basis set for the expansion.
  # See Ref. New J. Phys. 17, 093020 (2015) for more information, particularly Figs. 1 and 6.
  #
  ################################################################################
  #
  # for_aux hydro 5 g 6.0
  
  -----------------------------------------------------------------------
  Completed first pass over input file control.in .
  -----------------------------------------------------------------------
  
  
  -----------------------------------------------------------------------
  Parsing geometry.in (first pass over file, find array dimensions only).
  The contents of geometry.in will be repeated verbatim below
  unless switched off by setting 'verbatim_writeout .false.' .
  in the first line of geometry.in .
  -----------------------------------------------------------------------
  
  atom  -1.1685    0.1825    0.0000 O
  atom   1.1146    0.2103    0.0000 O
  atom   0.0538   -0.3927    0.0000 C
  atom  -0.0511   -1.4875    0.0002 H
  atom  -1.1142    1.1620    0.0000 H
  
  -----------------------------------------------------------------------
  Completed first pass over input file geometry.in .
  -----------------------------------------------------------------------
  

  Basic array size parameters:
  | Number of species                 :        3
  | Number of atoms                   :        5
  | Max. basis fn. angular momentum   :        4
  | Max. atomic/ionic basis occupied n:        2
  | Max. number of basis fn. types    :        2
  | Max. radial fns per species/type  :        8
  | Max. logarithmic grid size        :     1301
  | Max. radial integration grid size :       73
  | Max. angular integration grid size:      434
  | Max. angular grid division number :        8
  | Radial grid for Hartree potential :     1301
  | Number of spin channels           :        1

------------------------------------------------------------
          Reading file control.in.
------------------------------------------------------------
  XC: Using PBE gradient-corrected functionals.
  Scalar relativistic treatment of kinetic energy: on-site free-atom approximation to ZORA.
  Geometry relaxation: Modified BFGS - TRM (trust radius method) for lattice optimization.
  Convergence accuracy for geometry relaxation: Maximum force <   0.500000E-02 eV/A.
  Spin treatment: No spin polarisation.
 
  Reading configuration options for species O                   .
  | Found nuclear charge :   8.0000
  | Found atomic mass :    15.9994000000000      amu
  | Found l_max for Hartree potential  :   6
  | Found cutoff potl. onset [A], width [A], scale factor :    4.00000    2.00000    1.00000
  | Threshold for basis-dependent cutoff potential is   0.100000E-03
  | Found data for basic radial integration grid :    36 points, outermost radius =    7.000 A
  | Found multiplier for basic radial grid :   2
  | Found angular grid specification: user-specified.
  | Specified grid contains     6 separate shells.
  | Check grid settings after all constraints further below.
  | Found free-atom valence shell :  2 s   2.000
  | Found free-atom valence shell :  2 p   4.000
  | No ionic wave fns used. Skipping ion_occ.
  | No ionic wave fns used. Skipping ion_occ.
  | Found hydrogenic basis function :  2 p   1.800
  | Found hydrogenic basis function :  3 d   7.600
  | Found hydrogenic basis function :  3 s   6.400
  | Found hydrogenic basis function :  4 f  11.600
  | Found hydrogenic basis function :  3 p   6.200
  | Found hydrogenic basis function :  3 d   5.600
  | Found hydrogenic basis function :  5 g  17.600
  | Found hydrogenic basis function :  1 s   0.750
 | Encountered keyword species, ending the description of species O                   .
  Species O                   : Missing cutoff potential type.
  Defaulting to exp(1/x)/(1-x)^2 type cutoff potential.
  Species O : No 'logarithmic' tag. Using default grid for free atom:
  | Default logarithmic grid data [bohr] : 0.1000E-03 0.1000E+03 0.1012E+01
  Species O : On-site basis accuracy parameter (for Gram-Schmidt orthonormalisation) not specified.
  Using default value basis_acc =  0.1000000E-03.
  Species O                   : Using default innermost maximum threshold i_radial=  2 for radial functions.
  Species O                   : Default cutoff onset for free atom density etc. : 0.40000000E+01 AA.
  Species O                   : Basic radial grid will be enhanced according to radial_multiplier =   2, to contain    73 grid points.
 
  Reading configuration options for species H                   .
  | Found nuclear charge :   1.0000
  | Found atomic mass :    1.00794000000000      amu
  | Found l_max for Hartree potential  :   6
  | Found cutoff potl. onset [A], width [A], scale factor :    4.00000    2.00000    1.00000
  | Threshold for basis-dependent cutoff potential is   0.100000E-03
  | Found data for basic radial integration grid :    24 points, outermost radius =    7.000 A
  | Found multiplier for basic radial grid :   2
  | Found angular grid specification: user-specified.
  | Specified grid contains     6 separate shells.
  | Check grid settings after all constraints further below.
  | Found free-atom valence shell :  1 s   1.000
  | No ionic wave fns used. Skipping ion_occ.
  | Found hydrogenic basis function :  2 s   2.100
  | Found hydrogenic basis function :  2 p   3.500
  | Found hydrogenic basis function :  1 s   0.850
  | Found hydrogenic basis function :  2 p   3.700
  | Found hydrogenic basis function :  2 s   1.200
  | Found hydrogenic basis function :  3 d   7.000
 | Encountered keyword species, ending the description of species H                   .
  Species H                   : Missing cutoff potential type.
  Defaulting to exp(1/x)/(1-x)^2 type cutoff potential.
  Species H : No 'logarithmic' tag. Using default grid for free atom:
  | Default logarithmic grid data [bohr] : 0.1000E-03 0.1000E+03 0.1012E+01
  Species H : On-site basis accuracy parameter (for Gram-Schmidt orthonormalisation) not specified.
  Using default value basis_acc =  0.1000000E-03.
  Species H                   : Using default innermost maximum threshold i_radial=  2 for radial functions.
  Species H                   : Default cutoff onset for free atom density etc. : 0.40000000E+01 AA.
  Species H                   : Basic radial grid will be enhanced according to radial_multiplier =   2, to contain    49 grid points.
 
  Reading configuration options for species C                   .
  | Found nuclear charge :   6.0000
  | Found atomic mass :    12.0107000000000      amu
  | Found l_max for Hartree potential  :   6
  | Found cutoff potl. onset [A], width [A], scale factor :    4.00000    2.00000    1.00000
  | Threshold for basis-dependent cutoff potential is   0.100000E-03
  | Found data for basic radial integration grid :    34 points, outermost radius =    7.000 A
  | Found multiplier for basic radial grid :   2
  | Found angular grid specification: user-specified.
  | Specified grid contains     6 separate shells.
  | Check grid settings after all constraints further below.
  | Found free-atom valence shell :  2 s   2.000
  | Found free-atom valence shell :  2 p   2.000
  | No ionic wave fns used. Skipping ion_occ.
  | No ionic wave fns used. Skipping ion_occ.
  | Found hydrogenic basis function :  2 p   1.700
  | Found hydrogenic basis function :  3 d   6.000
  | Found hydrogenic basis function :  2 s   4.900
  | Found hydrogenic basis function :  4 f   9.800
  | Found hydrogenic basis function :  3 p   5.200
  | Found hydrogenic basis function :  3 s   4.300
  | Found hydrogenic basis function :  5 g  14.400
  | Found hydrogenic basis function :  3 d   6.200
  Species C                   : Missing cutoff potential type.
  Defaulting to exp(1/x)/(1-x)^2 type cutoff potential.
  Species C : No 'logarithmic' tag. Using default grid for free atom:
  | Default logarithmic grid data [bohr] : 0.1000E-03 0.1000E+03 0.1012E+01
  Species C : On-site basis accuracy parameter (for Gram-Schmidt orthonormalisation) not specified.
  Using default value basis_acc =  0.1000000E-03.
  Species C                   : Using default innermost maximum threshold i_radial=  2 for radial functions.
  Species C                   : Default cutoff onset for free atom density etc. : 0.40000000E+01 AA.
  Species C                   : Basic radial grid will be enhanced according to radial_multiplier =   2, to contain    69 grid points.
 
  Finished reading input file 'control.in'.
 
------------------------------------------------------------


------------------------------------------------------------
          Reading geometry description geometry.in.
------------------------------------------------------------
  | The smallest distance between any two atoms is         0.98100394 AA.
  | The first atom of this pair is atom number                      1 .
  | The second atom of this pair is atom number                     5 .
  Input structure read successfully.
  The structure contains        5 atoms,  and a total of         24.000 electrons.

  Input geometry:
  | No unit cell requested.
  | Atomic structure:
  |       Atom                x [A]            y [A]            z [A]
  |    1: Species O            -1.16850000        0.18250000        0.00000000
  |    2: Species O             1.11460000        0.21030000        0.00000000
  |    3: Species C             0.05380000       -0.39270000        0.00000000
  |    4: Species H            -0.05110000       -1.48750000        0.00020000
  |    5: Species H            -1.11420000        1.16200000        0.00000000

  Slab Identifier: This is not a periodic structure.
 
  Finished reading input file 'geometry.in'.
 

 
  Consistency checks for stacksize environment parameter are next.
 
  | Maximum stacksize for task 0: unlimited
  | Maximum stacksize for task 1: unlimited
  | Maximum stacksize for task 2: unlimited
  | Maximum stacksize for task 3: unlimited
  | Maximum stacksize for task 4: unlimited
  | Maximum stacksize for task 5: unlimited
  | Maximum stacksize for task 6: unlimited
  | Maximum stacksize for task 7: unlimited
  | Maximum stacksize for task 8: unlimited
  | Maximum stacksize for task 9: unlimited
  | Maximum stacksize for task 10: unlimited
  | Maximum stacksize for task 11: unlimited
  | Maximum stacksize for task 12: unlimited
  | Maximum stacksize for task 13: unlimited
  | Maximum stacksize for task 14: unlimited
  | Maximum stacksize for task 15: unlimited
  | Maximum stacksize for task 16: unlimited
  | Maximum stacksize for task 17: unlimited
  | Maximum stacksize for task 18: unlimited
  | Maximum stacksize for task 19: unlimited
  | Maximum stacksize for task 20: unlimited
  | Maximum stacksize for task 21: unlimited
  | Maximum stacksize for task 22: unlimited
  | Maximum stacksize for task 23: unlimited
  | Maximum stacksize for task 24: unlimited
  | Maximum stacksize for task 25: unlimited
  | Maximum stacksize for task 26: unlimited
  | Maximum stacksize for task 27: unlimited
  | Maximum stacksize for task 28: unlimited
  | Maximum stacksize for task 29: unlimited
  | Maximum stacksize for task 30: unlimited
  | Maximum stacksize for task 31: unlimited
  | Current stacksize for task 0: unlimited
  | Current stacksize for task 1: unlimited
  | Current stacksize for task 2: unlimited
  | Current stacksize for task 3: unlimited
  | Current stacksize for task 4: unlimited
  | Current stacksize for task 5: unlimited
  | Current stacksize for task 6: unlimited
  | Current stacksize for task 7: unlimited
  | Current stacksize for task 8: unlimited
  | Current stacksize for task 9: unlimited
  | Current stacksize for task 10: unlimited
  | Current stacksize for task 11: unlimited
  | Current stacksize for task 12: unlimited
  | Current stacksize for task 13: unlimited
  | Current stacksize for task 14: unlimited
  | Current stacksize for task 15: unlimited
  | Current stacksize for task 16: unlimited
  | Current stacksize for task 17: unlimited
  | Current stacksize for task 18: unlimited
  | Current stacksize for task 19: unlimited
  | Current stacksize for task 20: unlimited
  | Current stacksize for task 21: unlimited
  | Current stacksize for task 22: unlimited
  | Current stacksize for task 23: unlimited
  | Current stacksize for task 24: unlimited
  | Current stacksize for task 25: unlimited
  | Current stacksize for task 26: unlimited
  | Current stacksize for task 27: unlimited
  | Current stacksize for task 28: unlimited
  | Current stacksize for task 29: unlimited
  | Current stacksize for task 30: unlimited
  | Current stacksize for task 31: unlimited
 
  Consistency checks for the contents of control.in are next.
 
  MPI_IN_PLACE appears to work with this MPI implementation.
  | Keeping use_mpi_in_place .true. (see manual).
  Target number of points in a grid batch is not set. Defaulting to  100
  Method for grid partitioning is not set. Defaulting to parallel hash+maxmin partitioning.
  Batch size limit is not set. Defaulting to    200
  By default, will store active basis functions for each batch.
  If in need of memory, prune_basis_once .false. can be used to disable this option.
  communication_type for Hartree potential was not specified.
  Defaulting to calc_hartree .
  Defaulting to Pulay charge density mixer.
  Pulay mixer: Number of relevant iterations not set.
  Defaulting to    8 iterations.
  Pulay mixer: Number of initial linear mixing iterations not set.
  Defaulting to    0 iterations.
  Work space size for distributed Hartree potential not set.
  Defaulting to   0.200000E+03 MB.
  Mixing parameter for charge density mixing has not been set.
  Using default: charge_mix_param =     0.0500.
  The mixing parameter will be adjusted in iteration number     2 of each s.c.f. cycle (i.e., each geometry step).
  Algorithm-dependent basis array size parameters:
  | n_max_pulay                         :        8
  Maximum number of self-consistency iterations not provided.
  Presetting  1000 iterations.
  Presetting      1001 iterations before the initial mixing cycle
  is restarted anyway using the sc_init_iter criterion / keyword.
  Presetting a factor      1.000 between actual scf density residual
  and density convergence criterion sc_accuracy_rho below which sc_init_iter
  takes no effect.
 * No s.c.f. convergence criteria (sc_accuracy_*) were provided in control.in.
 * The run will proceed with a reasonable default guess, but please check whether.
 * the s.c.f. cycles seem to take too much or too little time.
  No maximum number of relaxation steps, defaulting to     1000
  Default initial Hessian is Lindh matrix (thres = 15.00) plus  0.200000E+01 eV/A^2 times unity.
  No maximum energy tolerance for TRM/BFGS moves, defaulting to   0.150000E-02
  Maximum energy tolerance by which TRM/BFGS trajectory may increase over multiple steps:   0.300000E-02
  No harmonic length scale. Defaulting to   0.250000E-01 A.
  No trust radius initializer. Defaulting to   0.200000E+00 A.
  Forces evaluation will include force correction term due to incomplete self-consistency (default).
 * Notice: The s.c.f. convergence criterion sc_accuracy_rho was not provided.
 * We used to stop in this case, and ask the user to provide reasonable
 * scf convergence criteria. However, this led some users to employ criteria
 * that led to extremely long run times, e.g., for simple relaxation.
 * We now preset a default value for sc_accuracy_rho if it is not set.
 * You may still wish to check if this setting is too tight or too loose for your needs.
 * Based on n_atoms and forces and force-correction status, FHI-aims chose sc_accuracy_rho =  0.800000E-05 .
  Force calculation: scf convergence accuracy of forces not set.
  Defaulting to 'sc_accuracy_forces not_checked'.
  Handling of forces: Unphysical translation and rotation will be removed from forces.
  No accuracy limit for integral partition fn. given. Defaulting to  0.1000E-14.
  No threshold value for u(r) in integrations given. Defaulting to  0.1000E-05.
  No occupation type (smearing scheme) given. Defaulting to Gaussian broadening, width =  0.1000E-01 eV.
  The width will be adjusted in iteration number     2 of each s.c.f. cycle (i.e., each geometry step).
  No accuracy for occupation numbers given. Defaulting to  0.1000E-12.
  No threshold value for occupation numbers given. Defaulting to  0.0000E+00.
  No accuracy for fermi level given. Defaulting to  0.1000E-19.
  Maximum # of iterations to find E_F not set. Defaulting to  200.
  Preferred method for the eigenvalue solver ('KS_method') not specified in 'control.in'.
  Calling BLACS routine to test compilation state
  Since ScaLAPACK support is enabled, defaulting to ELPA (via ELSI).
  Will not use alltoall communication since running on < 1024 CPUs.
  Threshold for basis singularities not set.
  Default threshold for basis singularities:  0.1000E-04
  partition_type (choice of integration weights) for integrals was not specified.
  | Using a version of the partition function of Stratmann and coworkers ('stratmann_sparse').
  | At each grid point, the set of atoms used to build the partition table is smoothly restricted to
  | only those atoms whose free-atom density would be non-zero at that grid point.
  Partitioning for Hartree potential was not defined. Using partition_type for integrals.
  | Adjusted default value of keyword multip_moments_threshold to:       0.10000000E-11
  | This value may affect high angular momentum components of the Hartree potential in periodic systems.
  No q(lm)/r^(l+1) cutoff set for long-range Hartree potential.
  | Using default value of  0.100000E-09 .
  | Verify using the multipole_threshold keyword.
  Defaulting to new monopole extrapolation.
  Density update method: automatic selection selected.
  Geometry relaxation: A file "geometry.in.next_step" is written out by default after each step.
  | This file contains the geometry of the current relaxation step as well as
  | the current Hessian matrix needed to restart the relaxation algorithm.
  | If you do not want part or all of this information, use the keywords
  | "write_restart_geometry" or "hessian_to_restart_geometry" to switch the output off.
  Charge integration errors on the 3D integration grid will be compensated
  by explicit normalization and distribution of residual charges.
  Use the "compensate_multipole_errors" flag to change this behaviour.
  Set 'collect_eigenvectors' to be '.true.' for use_density_matrix .false.
  Found no potential conflicts with setting 'use_local_index' for this calculation.
  Flag 'use_local_index' has not been set.
  Testing whether we classify this calculation as large-scale ...
  The calculation contains less than 100 atoms. This is most likely not a large-scale calculation.
  Not setting 'use_local_index'.
 
  Consistency checks for the contents of geometry.in are next.
 
  Number of empty states per atom not set in control.in - providing a guess from actual geometry.
  | Total number of empty states used during s.c.f. cycle:       12
  If you use a very high smearing, use empty_states (per atom!) in control.in to increase this value.

  Structure-dependent array size parameters: 
  | Maximum number of distinct radial functions  :       29
  | Maximum number of basis functions            :      147
  | Number of Kohn-Sham states (occupied + empty):       24
------------------------------------------------------------
  After read_input_data [GB]:   1033.68

  Performing system and environment tests:
  *** Environment variable OMP_NUM_THREADS is not set
  *** For performance reasons you might want to set it to 1
  | Checking for ScaLAPACK...
  | Testing pdtran()...
  | All pdtran() tests passed.
  After prepare_system [GB]:   1033.58

------------------------------------------------------------
          Preparing all fixed parts of the calculation.
------------------------------------------------------------
  Determining machine precision:
    2.225073858507201E-308
  Setting up grids for atomic and cluster calculations.

  Creating wave function, potential, and density for free atoms.
  Runtime choices for atomic solver:
  | atomic solver xc        : PBE
  | compute density gradient: 1
  | compute kinetic density : F

  Species: O

  List of occupied orbitals and eigenvalues:
    n    l              occ      energy [Ha]    energy [eV]
    1    0           2.0000       -18.927378      -515.0401
    2    0           2.0000        -0.880539       -23.9607
    2    1           4.0000        -0.331811        -9.0290


  Species: H

  List of occupied orbitals and eigenvalues:
    n    l              occ      energy [Ha]    energy [eV]
    1    0           1.0000        -0.238386        -6.4868


  Species: C

  List of occupied orbitals and eigenvalues:
    n    l              occ      energy [Ha]    energy [eV]
    1    0           2.0000       -10.049212      -273.4530
    2    0           2.0000        -0.504761       -13.7352
    2    1           2.0000        -0.193631        -5.2690


  Adding cutoff potential to free-atom effective potential.
  Creating fixed part of basis set: Ionic, confined, hydrogenic.
 
  O                    hydrogenic:
 
  List of hydrogenic basis orbitals: 
    n    l      effective z      eigenvalue [eV]  inner max. [A]     outer max. [A]     outer radius [A]   
    2    1         1.800000       -11.0118           1.178562           1.178562           5.432602
    3    2         7.600000       -87.3182           0.624125           0.624125           3.541477
    3    0         6.400000       -61.9209           0.061167           1.081902           4.306578
    4    3        11.600000      -114.4238           0.731631           0.731631           3.585037
    3    1         6.200000       -58.1113           0.255680           1.030270           4.306578
    3    2         5.600000       -47.4081           0.847233           0.847233           4.413171
    5    4        17.600000      -168.5799           0.749740           0.749740           3.372465
    1    0         0.750000        -7.6499           0.705284           0.705284           5.366593
 
 
  H                    hydrogenic:
 
  List of hydrogenic basis orbitals: 
    n    l      effective z      eigenvalue [eV]  inner max. [A]     outer max. [A]     outer radius [A]   
    2    0         2.100000       -14.9965           0.193243           1.317208           5.373006
    2    1         3.500000       -41.6672           0.602369           0.602369           4.056063
    1    0         0.850000        -9.8292           0.624871           0.624871           5.373006
    2    1         3.700000       -46.5653           0.573622           0.573622           3.910002
    2    0         1.200000        -4.5995           0.334980           2.228188           5.505995
    3    2         7.000000       -74.0753           0.680699           0.680699           3.769201
 
 
  C                    hydrogenic:
 
  List of hydrogenic basis orbitals: 
    n    l      effective z      eigenvalue [eV]  inner max. [A]     outer max. [A]     outer radius [A]   
    2    1         1.700000        -9.8152           1.245706           1.245706           5.401630
    3    2         6.000000       -54.4226           0.792453           0.792453           4.178599
    2    0         4.900000       -81.6681           0.082559           0.562749           3.353238
    4    3         9.800000       -81.6681           0.863254           0.863254           4.028125
    3    1         5.200000       -40.8774           0.305389           1.215618           4.898362
    3    0         4.300000       -27.9508           0.091041           1.610311           5.401630
    5    4        14.400000      -112.8510           0.917666           0.917666           3.883070
    3    2         6.200000       -58.1113           0.763917           0.763917           4.077671
 
  Creating atomic-like basis functions for current effective potential.

  Species O                   :

  List of atomic basis orbitals and eigenvalues:
    n    l      energy [Ha]    energy [eV]    outer radius [A]
    1    0       -18.927378      -515.0401       1.415765
    2    0        -0.880539       -23.9607       5.048385
    2    1        -0.331811        -9.0290       5.301386


  Species H                   :

  List of atomic basis orbitals and eigenvalues:
    n    l      energy [Ha]    energy [eV]    outer radius [A]
    1    0        -0.238386        -6.4868       5.373006


  Species C                   :

  List of atomic basis orbitals and eigenvalues:
    n    l      energy [Ha]    energy [eV]    outer radius [A]
    1    0       -10.049212      -273.4530       1.934409
    2    0        -0.504761       -13.7352       5.271162
    2    1        -0.193631        -5.2690       5.401630

  Assembling full basis from fixed parts.
  | Species O :   atomic orbital   1 s accepted.
  | Species O :    hydro orbital   3 s accepted.
  | Species O :   atomic orbital   2 s accepted.
  | Species O :    hydro orbital   1 s accepted.
  | Species O :    hydro orbital   3 p accepted.
  | Species O :   atomic orbital   2 p accepted.
  | Species O :    hydro orbital   2 p accepted.
  | Species O :    hydro orbital   3 d accepted.
  | Species O :    hydro orbital   3 d accepted.
  | Species O :    hydro orbital   4 f accepted.
  | Species O :    hydro orbital   5 g accepted.
  | Species H :   atomic orbital   1 s accepted.
  | Species H :    hydro orbital   2 s accepted.
  | Species H :    hydro orbital   1 s accepted.
  | Species H :    hydro orbital   2 s accepted.
  | Species H :    hydro orbital   2 p accepted.
  | Species H :    hydro orbital   2 p accepted.
  | Species H :    hydro orbital   3 d accepted.
  | Species C :   atomic orbital   1 s accepted.
  | Species C :    hydro orbital   2 s accepted.
  | Species C :   atomic orbital   2 s accepted.
  | Species C :    hydro orbital   3 s accepted.
  | Species C :    hydro orbital   3 p accepted.
  | Species C :   atomic orbital   2 p accepted.
  | Species C :    hydro orbital   2 p accepted.
  | Species C :    hydro orbital   3 d accepted.
  | Species C :    hydro orbital   3 d accepted.
  | Species C :    hydro orbital   4 f accepted.
  | Species C :    hydro orbital   5 g accepted.
 
  Basis size parameters after reduction:
  | Total number of radial functions:       29
  | Total number of basis functions :      147
 
  Per-task memory consumption for arrays in subroutine allocate_ext:
  |           9.663980MB.
  Testing on-site integration grid accuracy.
  |  Species  Function  <phi|h_atom|phi> (log., in eV)  <phi|h_atom|phi> (rad., in eV)
           1        1               -515.0401491148               -515.0401445497
           1        2                 15.1629302771                 15.1629233102
           1        3                -21.6127103295                -21.6127145449
           1        4                 14.4001435709                 14.4001765990
           1        5                 20.8862585187                 20.8862589491
           1        6                 -2.4803658578                 -2.4803665016
           1        7                 13.8586387760                 13.8586021622
           1        8                 45.8331828879                 45.8331828941
           1        9                 52.1851961049                 52.1851977023
           1       10                 85.4133898762                 85.4133899074
           1       11                142.1023296234                142.1023296272
           2       12                 -6.4870767962                 -6.4871688290
           2       13                 13.5032046589                 13.5028982997
           2       14                 32.8195184817                 32.8119941656
           2       15                 33.8513856511                 33.7670005767 ***
           2       16                 28.8544614965                 28.8544615203
           2       17                 59.6326952547                 59.6327656460
           2       18                 60.2719308513                 60.2719305949
           3       19               -273.4529725981               -273.4529710451
           3       20                -10.7721037329                -10.7721022102
           3       21                 17.6044132585                 17.6044162052
           3       22                 53.7706460564                 53.7706913681
           3       23                 15.0973290351                 15.0973256011
           3       24                  3.8545134677                  3.8545724657
           3       25                 12.1156992586                 12.1182024423
           3       26                 29.4352039288                 29.4352041805
           3       27                 54.8741144697                 54.8740268719
           3       28                 59.3556032036                 59.3556031370
           3       29                 93.4551837140                 93.4551837996
 * Note: Onsite integrals marked "***" above are less accurate than
 * onsite_accuracy_threshold =    0.03000 eV. Usually, this is harmless.
 * When in doubt, tighten the "radial" and/or "radial_multiplier" flags to check.

  Preparing densities etc. for the partition functions (integrals / Hartree potential).

  Preparations completed.
  max(cpu_time)          :      0.199 s.
  Wall clock time (cpu1) :      0.196 s.
------------------------------------------------------------
  After prepare_scf [GB]:   1031.75

  Initializing index lists of integration centers etc. from given atomic structure:
  | Number of centers in hartree potential         :         5
  | Number of centers in hartree multipole         :         5
  | Number of centers in electron density summation:         5
  | Number of centers in basis integrals           :         5
  | Number of centers in integrals                 :         5
  | Number of centers in hamiltonian               :         5
  After initialize_bc_dependent_lists [GB]:   1031.75

------------------------------------------------------------
          Begin self-consistency loop: Initialization.

          Date     :  20250311, Time     :  153552.991
------------------------------------------------------------

  Initializing relaxation algorithms.
  Finished initialization of distributed Hessian storage.
  | Global dimension:        15
  | BLACS block size:         1
  | Number of workers:       15

  Available memory per node after initialize_hartree_non_periodic_ewald [GB]:   1031.75
  Available memory per node after initialize_recip_hartree_potential [GB]:   1031.75
  * Using 32 tasks for Scalapack Eigenvalue solver.
  Detailed listing of tasks and assigned k-points:
  (for non-periodic systems, the "k-point" denotes an internal label only)
   Task     0 k-point     1 on RSL-arvutus
   Task     1 k-point     1 on RSL-arvutus
   Task     2 k-point     1 on RSL-arvutus
   Task     3 k-point     1 on RSL-arvutus
   Task     4 k-point     1 on RSL-arvutus
   Task     5 k-point     1 on RSL-arvutus
   Task     6 k-point     1 on RSL-arvutus
   Task     7 k-point     1 on RSL-arvutus
   Task     8 k-point     1 on RSL-arvutus
   Task     9 k-point     1 on RSL-arvutus
   Task    10 k-point     1 on RSL-arvutus
   Task    11 k-point     1 on RSL-arvutus
   Task    12 k-point     1 on RSL-arvutus
   Task    13 k-point     1 on RSL-arvutus
   Task    14 k-point     1 on RSL-arvutus
   Task    15 k-point     1 on RSL-arvutus
   Task    16 k-point     1 on RSL-arvutus
   Task    17 k-point     1 on RSL-arvutus
   Task    18 k-point     1 on RSL-arvutus
   Task    19 k-point     1 on RSL-arvutus
   Task    20 k-point     1 on RSL-arvutus
   Task    21 k-point     1 on RSL-arvutus
   Task    22 k-point     1 on RSL-arvutus
   Task    23 k-point     1 on RSL-arvutus
   Task    24 k-point     1 on RSL-arvutus
   Task    25 k-point     1 on RSL-arvutus
   Task    26 k-point     1 on RSL-arvutus
   Task    27 k-point     1 on RSL-arvutus
   Task    28 k-point     1 on RSL-arvutus
   Task    29 k-point     1 on RSL-arvutus
   Task    30 k-point     1 on RSL-arvutus
   Task    31 k-point     1 on RSL-arvutus
  Tasks:    32 split into      8 X      4 BLACS grid
  Calculating block size based on n_basis =          147  max_nprow =            8  max_npcol =            4
  ScaLAPACK block size set to:           16
  Allocating        0.012 MB for ovlp
  Allocating        0.012 MB for ham
  Allocating        0.012 MB for eigenvec
  Required Scalapack workspace - INTEGER:            1  REAL:             1
  Available memory per node after initialize_scalapack [GB]:   1031.75
  Available memory per node after aims_elsi_init_scf [GB]:   1031.75
  Available memory per node after initialize_fixed_grids [GB]:   1031.75
  Partitioning the integration grid into batches with parallel hashing+maxmin method.
  | Number of batches:     1149
  | Maximal batch size:     197
  | Minimal batch size:      25
  | Average batch size:      75.939
  | Standard deviation of batch sizes:      20.305

  Integration load balanced across    32 MPI tasks.
  Work distribution over tasks is as follows:
  Task     0 has       2812 integration points.
  Task     1 has       2818 integration points.
  Task     2 has       2707 integration points.
  Task     3 has       2688 integration points.
  Task     4 has       2703 integration points.
  Task     5 has       2785 integration points.
  Task     6 has       2683 integration points.
  Task     7 has       2681 integration points.
  Task     8 has       2703 integration points.
  Task     9 has       2775 integration points.
  Task    10 has       2698 integration points.
  Task    11 has       2678 integration points.
  Task    12 has       2709 integration points.
  Task    13 has       2680 integration points.
  Task    14 has       2733 integration points.
  Task    15 has       2799 integration points.
  Task    16 has       2702 integration points.
  Task    17 has       2692 integration points.
  Task    18 has       2699 integration points.
  Task    19 has       2707 integration points.
  Task    20 has       2794 integration points.
  Task    21 has       2787 integration points.
  Task    22 has       2692 integration points.
  Task    23 has       2798 integration points.
  Task    24 has       2772 integration points.
  Task    25 has       2679 integration points.
  Task    26 has       2706 integration points.
  Task    27 has       2695 integration points.
  Task    28 has       2689 integration points.
  Task    29 has       2803 integration points.
  Task    30 has       2694 integration points.
  Task    31 has       2693 integration points.
  Available memory per node after partition_grid [GB]:   1031.75
  Initializing partition tables, free-atom densities, potentials, etc. across the integration grid (initialize_grid_storage).
  | initialize_grid_storage: Actual outermost partition radius vs. multipole_radius_free
  | (-- VB: in principle, multipole_radius_free should be larger, hence this output)
  | Species        1: Confinement radius =              6.000000000000000 AA, multipole_radius_free =              6.064445521808699 AA.
  | Species        1: outer_partition_radius set to              6.064445521808699 AA .
  | Species        2: Confinement radius =              6.000000000000000 AA, multipole_radius_free =              6.071692442739658 AA.
  | Species        2: outer_partition_radius set to              6.071692442739658 AA .
  | Species        3: Confinement radius =              6.000000000000000 AA, multipole_radius_free =              6.029870734432609 AA.
  | Species        3: outer_partition_radius set to              6.029870734432609 AA .
  | The sparse table of interatomic distances needs          0.26 kbyte instead of         0.20 kbyte of memory.
  | Using the partition_type stratmann_smoother will reduce your memory usage.
  | Net number of integration points:    87254
  | of which are non-zero points    :    76595
  Available memory per node after initialize_grid_storage_p1 [GB]:   1031.75
  Renormalizing the initial density to the exact electron count on the 3D integration grid.
  | Initial density: Formal number of electrons (from input files) :      24.0000000000
  | Integrated number of electrons on 3D grid     :      23.9999990644
  | Charge integration error                      :      -0.0000009356
  | Normalization factor for density and gradient :       1.0000000390
  Renormalizing the free-atom superposition density to the exact electron count on the 3D integration grid.
  | Formal number of electrons (from input files) :      24.0000000000
  | Integrated number of electrons on 3D grid     :      23.9999990644
  | Charge integration error                      :      -0.0000009356
  | Normalization factor for density and gradient :       1.0000000390
  Obtaining max. number of non-zero basis functions in each batch (get_n_compute_maxes).
  | Maximal number of non-zero basis functions:      147 in task     0
  | Maximal number of non-zero basis functions:      147 in task     1
  | Maximal number of non-zero basis functions:      147 in task     2
  | Maximal number of non-zero basis functions:      147 in task     3
  | Maximal number of non-zero basis functions:      147 in task     4
  | Maximal number of non-zero basis functions:      147 in task     5
  | Maximal number of non-zero basis functions:      147 in task     6
  | Maximal number of non-zero basis functions:      147 in task     7
  | Maximal number of non-zero basis functions:      147 in task     8
  | Maximal number of non-zero basis functions:      147 in task     9
  | Maximal number of non-zero basis functions:      147 in task    10
  | Maximal number of non-zero basis functions:      147 in task    11
  | Maximal number of non-zero basis functions:      147 in task    12
  | Maximal number of non-zero basis functions:      147 in task    13
  | Maximal number of non-zero basis functions:      147 in task    14
  | Maximal number of non-zero basis functions:      147 in task    15
  | Maximal number of non-zero basis functions:      147 in task    16
  | Maximal number of non-zero basis functions:      147 in task    17
  | Maximal number of non-zero basis functions:      147 in task    18
  | Maximal number of non-zero basis functions:      147 in task    19
  | Maximal number of non-zero basis functions:      147 in task    20
  | Maximal number of non-zero basis functions:      147 in task    21
  | Maximal number of non-zero basis functions:      147 in task    22
  | Maximal number of non-zero basis functions:      147 in task    23
  | Maximal number of non-zero basis functions:      147 in task    24
  | Maximal number of non-zero basis functions:      147 in task    25
  | Maximal number of non-zero basis functions:      147 in task    26
  | Maximal number of non-zero basis functions:      147 in task    27
  | Maximal number of non-zero basis functions:      147 in task    28
  | Maximal number of non-zero basis functions:      147 in task    29
  | Maximal number of non-zero basis functions:      147 in task    30
  | Maximal number of non-zero basis functions:      147 in task    31
  Selecting the method for density update.
  Loop over occupied states selected for charge density update.
  Available memory per node after get_n_compute_maxes_p1 [GB]:   1031.75
  Allocating        0.027 MB for KS_eigenvector
  Available memory per node after allocate_matrices [GB]:   1031.75
  Available memory per node after init_comm_sparse_local_matrix_scalapack [GB]:   1031.75
  Integrating Hamiltonian matrix: batch-based integration.
  Time summed over all CPUs for integration: real work        0.704 s, elapsed        0.949 s => Consider using load balancing!
  Available memory per node after integrate hamiltonian matrix [GB]:   1031.75
  Integrating overlap matrix.
  Time summed over all CPUs for integration: real work        0.285 s, elapsed        0.404 s
  Available memory per node after integrate ovlp matrix [GB]:   1031.75
  Available memory per node after ASI_callbacks invoke [GB]:   1031.75
  Deallocating overlap matrix.
  Available memory per node after save_overlap_scalapack [GB]:   1031.75

  Updating Kohn-Sham eigenvalues and eigenvectors using ELSI and the ELPA eigensolver.
  Overlap matrix is not singular
  | Lowest and highest eigenvalues :  0.1907E-03,  0.4438E+01
  Finished singularity check of overlap matrix
  | Time :     0.010 s
  Starting ELPA eigensolver
  Finished Cholesky decomposition
  | Time :     0.002 s
  Finished transformation to standard eigenproblem
  | Time :     0.001 s
  Finished solving standard eigenproblem
  | Time :     0.004 s
  Finished back-transformation of eigenvectors
  | Time :     0.000 s

  Obtaining occupation numbers and electronic chemical potential using ELSI.
  | Note that, for insulating systems, the printed 'chemical potential' value is not uniquely defined.
  | It can be anywhere in the energy gap, as long as it correctly separates occupied and unoccupied states.
  | In systems with a gap, the physically relevant chemical potential is the VBM or HOMO.

  | Chemical potential (Fermi level):   -10.28039652 eV
  Available memory per node after advance_KS_solution [GB]:   1031.75
  Writing Kohn-Sham eigenvalues.

  State    Occupation    Eigenvalue [Ha]    Eigenvalue [eV]
      1       2.00000         -19.026099         -517.72649
      2       2.00000         -19.004238         -517.13164
      3       2.00000         -10.141985         -275.97746
      4       2.00000          -1.150713          -31.31249
      5       2.00000          -1.085958          -29.55041
      6       2.00000          -0.718458          -19.55024
      7       2.00000          -0.592549          -16.12409
      8       2.00000          -0.576499          -15.68734
      9       2.00000          -0.512647          -13.94983
     10       2.00000          -0.485835          -13.22024
     11       2.00000          -0.425952          -11.59074
     12       2.00000          -0.396786          -10.79708
     13       0.00000          -0.155537           -4.23238
     14       0.00000          -0.046132           -1.25531
     15       0.00000          -0.012731           -0.34641
     16       0.00000           0.048163            1.31057
     17       0.00000           0.068216            1.85626
     18       0.00000           0.093532            2.54513
     19       0.00000           0.108113            2.94191
     20       0.00000           0.136620            3.71761
     21       0.00000           0.144712            3.93782
     22       0.00000           0.170760            4.64662
     23       0.00000           0.182234            4.95885
     24       0.00000           0.223760            6.08883

  Highest occupied state (VBM) at    -10.79708304 eV
  | Occupation number:      2.00000000

  Lowest unoccupied state (CBM) at    -4.23238127 eV
  | Occupation number:      0.00000000

  Overall HOMO-LUMO gap:      6.56470176 eV.
  Calculating total energy contributions from superposition of free atom densities.

  Total energy components:
  | Sum of eigenvalues            :        -108.23543692 Ha       -2945.23609052 eV
  | XC energy correction          :         -22.77049313 Ha        -619.61664378 eV
  | XC potential correction       :          29.27024764 Ha         796.48396287 eV
  | Free-atom electrostatic energy:         -88.21377002 Ha       -2400.41881409 eV
  | Hartree energy correction     :           0.00000000 Ha           0.00000000 eV
  | Entropy correction            :           0.00000000 Ha           0.00000000 eV
  | ---------------------------
  | Total energy                  :        -189.94945243 Ha       -5168.78758553 eV
  | Total energy, T -> 0          :        -189.94945243 Ha       -5168.78758553 eV  <-- do not rely on this value for anything but (periodic) metals
  | Electronic free energy        :        -189.94945243 Ha       -5168.78758553 eV

  Derived energy quantities:
  | Kinetic energy                :         188.71177764 Ha        5135.10874101 eV
  | Electrostatic energy          :        -355.89073694 Ha       -9684.27968275 eV
  | Energy correction for multipole
  | error in Hartree potential    :           0.00000000 Ha           0.00000000 eV
  | Sum of eigenvalues per atom                           :        -589.04721810 eV
  | Total energy (T->0) per atom                          :       -1033.75751711 eV  <-- do not rely on this value for anything but (periodic) metals
  | Electronic free energy per atom                       :       -1033.75751711 eV
  Initialize hartree_potential_storage
  Max. number of atoms included in rho_multipole:            5

  End scf initialization - timings             :  max(cpu_time)    wall_clock(cpu1)
  | Time for scf. initialization                :        0.126 s           0.130 s
  | Boundary condition initialization           :        0.019 s           0.019 s
  | Relaxation initialization                   :        0.003 s           0.003 s
  | Integration                                 :        0.044 s           0.044 s
  | Solution of K.-S. eqns.                     :        0.023 s           0.025 s
  | Grid partitioning                           :        0.024 s           0.025 s
  | Preloading free-atom quantities on grid     :        0.016 s           0.016 s
  | Free-atom superposition energy              :        0.003 s           0.004 s
  | Total energy evaluation                     :        0.001 s           0.001 s

  Partial memory accounting:
  | Current value for overall tracked memory usage:
  |   Minimum:        0.127 MB (on task 10)
  |   Maximum:        0.151 MB (on task  0)
  |   Average:        0.131 MB
  | Peak value for overall tracked memory usage:
  |   Minimum:        1.041 MB (on task 10 after allocating wave)
  |   Maximum:        1.065 MB (on task  0 after allocating wave)
  |   Average:        1.045 MB
  | Largest tracked array allocation so far:
  |   Minimum:        0.221 MB (H_times_psi on task  0)
  |   Maximum:        0.319 MB (all_coords on task  9)
  |   Average:        0.227 MB
  Note:  These values currently only include a subset of arrays which are explicitly tracked.
  The "true" memory usage will be greater.
------------------------------------------------------------
  Available memory after initialize_scf [GB]:   1031.75
  Available memory after allocating mixing [GB]:   1031.75
  Evaluating new KS density.
  Integration grid: deviation in total charge (<rho> - N_e) =  -7.105427E-15

  Time for density update prior                :  max(cpu_time)    wall_clock(cpu1)
  | self-consistency iterative process          :        0.015 s           0.015 s
  Available memory before start of SCF loop [GB]:   1031.75

------------------------------------------------------------
          Begin self-consistency iteration #    1

  Date     :  20250311, Time     :  153553.137
------------------------------------------------------------
  Pulay mixing of updated and previous charge densities.
  Available memory per node after mixing [GB]:   1031.75
  Renormalizing the density to the exact electron count on the 3D integration grid.
  | Formal number of electrons (from input files) :      24.0000000000
  | Integrated number of electrons on 3D grid     :      24.0000000000
  | Charge integration error                      :       0.0000000000
  | Normalization factor for density and gradient :       1.0000000000

  Evaluating partitioned Hartree potential by multipole expansion.
  | Original multipole sum: apparent total charge =   0.902122E-14
  | Sum of charges compensated after spline to logarithmic grids =   0.169527E-06
  | Analytical far-field extrapolation by fixed multipoles:
  | Hartree multipole sum: apparent total charge =   0.909194E-14
  Summing up the Hartree potential.
  Time summed over all CPUs for potential: real work        0.005 s, elapsed        0.007 s
  | RMS charge density error from multipole expansion :   0.300093E-03

  Integrating Hamiltonian matrix: batch-based integration.
  Time summed over all CPUs for integration: real work        0.435 s, elapsed        0.709 s => Consider using load balancing!

  Updating Kohn-Sham eigenvalues and eigenvectors using ELSI and the ELPA eigensolver.
  Starting ELPA eigensolver
  Finished transformation to standard eigenproblem
  | Time :     0.001 s
  Finished solving standard eigenproblem
  | Time :     0.003 s
  Finished back-transformation of eigenvectors
  | Time :     0.000 s

  Obtaining occupation numbers and electronic chemical potential using ELSI.
  | Note that, for insulating systems, the printed 'chemical potential' value is not uniquely defined.
  | It can be anywhere in the energy gap, as long as it correctly separates occupied and unoccupied states.
  | In systems with a gap, the physically relevant chemical potential is the VBM or HOMO.

  | Chemical potential (Fermi level):   -10.17955267 eV
  Writing Kohn-Sham eigenvalues.

  State    Occupation    Eigenvalue [Ha]    Eigenvalue [eV]
      1       2.00000         -19.001504         -517.05723
      2       2.00000         -18.970234         -516.20632
      3       2.00000         -10.136193         -275.81985
      4       2.00000          -1.137439          -30.95130
      5       2.00000          -1.071491          -29.15676
      6       2.00000          -0.710047          -19.32137
      7       2.00000          -0.580763          -15.80338
      8       2.00000          -0.562738          -15.31288
      9       2.00000          -0.501302          -13.64112
     10       2.00000          -0.473733          -12.89093
     11       2.00000          -0.411407          -11.19496
     12       2.00000          -0.380472          -10.35316
     13       0.00000          -0.147173           -4.00477
     14       0.00000          -0.044135           -1.20097
     15       0.00000          -0.011411           -0.31052
     16       0.00000           0.052804            1.43687
     17       0.00000           0.072754            1.97974
     18       0.00000           0.095415            2.59637
     19       0.00000           0.110442            3.00527
     20       0.00000           0.139842            3.80530
     21       0.00000           0.148231            4.03356
     22       0.00000           0.175784            4.78333
     23       0.00000           0.184929            5.03218
     24       0.00000           0.226793            6.17134

  Highest occupied state (VBM) at    -10.35315691 eV
  | Occupation number:      2.00000000

  Lowest unoccupied state (CBM) at    -4.00477144 eV
  | Occupation number:      0.00000000

  Overall HOMO-LUMO gap:      6.34838547 eV.

  Total energy components:
  | Sum of eigenvalues            :        -107.87464747 Ha       -2935.41850998 eV
  | XC energy correction          :         -22.80828233 Ha        -620.64494034 eV
  | XC potential correction       :          29.31964451 Ha         797.82812004 eV
  | Free-atom electrostatic energy:         -88.21377002 Ha       -2400.41881409 eV
  | Hartree energy correction     :          -0.35212107 Ha          -9.58170175 eV
  | Entropy correction            :          -0.00000000 Ha          -0.00000000 eV
  | ---------------------------
  | Total energy                  :        -189.92917638 Ha       -5168.23584613 eV
  | Total energy, T -> 0          :        -189.92917638 Ha       -5168.23584613 eV  <-- do not rely on this value for anything but (periodic) metals
  | Electronic free energy        :        -189.92917638 Ha       -5168.23584613 eV

  Derived energy quantities:
  | Kinetic energy                :         188.92485845 Ha        5140.90696482 eV
  | Electrostatic energy          :        -356.04575249 Ha       -9688.49787061 eV
  | Energy correction for multipole
  | error in Hartree potential    :          -0.00048487 Ha          -0.01319400 eV
  | Sum of eigenvalues per atom                           :        -587.08370200 eV
  | Total energy (T->0) per atom                          :       -1033.64716923 eV  <-- do not rely on this value for anything but (periodic) metals
  | Electronic free energy per atom                       :       -1033.64716923 eV
  Evaluating new KS density.
  Integration grid: deviation in total charge (<rho> - N_e) =   1.421085E-14

  Self-consistency convergence accuracy:
  | Change of charge density      :  0.3901E+00
  | Change of unmixed KS density  :  0.1405E+02
  | Change of sum of eigenvalues  :  0.9818E+01 eV
  | Change of total energy        :  0.5517E+00 eV


------------------------------------------------------------
  End self-consistency iteration #     1       :  max(cpu_time)    wall_clock(cpu1)
  | Time for this iteration                     :        0.054 s           0.054 s
  | Charge density update                       :        0.013 s           0.013 s
  | Density mixing                              :        0.001 s           0.001 s
  | Hartree multipole update                    :        0.002 s           0.001 s
  | Hartree multipole summation                 :        0.011 s           0.010 s
  | Integration                                 :        0.022 s           0.023 s
  | Solution of K.-S. eqns.                     :        0.005 s           0.005 s
  | Total energy evaluation                     :        0.000 s           0.000 s

  Partial memory accounting:
  | Current value for overall tracked memory usage:
  |   Minimum:        1.619 MB (on task 11)
  |   Maximum:        1.717 MB (on task  0)
  |   Average:        1.650 MB
  | Peak value for overall tracked memory usage:
  |   Minimum:        2.503 MB (on task 11 after allocating gradient_basis_wave)
  |   Maximum:        2.601 MB (on task  0 after allocating gradient_basis_wave)
  |   Average:        2.534 MB
  | Largest tracked array allocation so far:
  |   Minimum:        0.663 MB (gradient_basis_wave on task  0)
  |   Maximum:        0.663 MB (gradient_basis_wave on task  0)
  |   Average:        0.663 MB
  Note:  These values currently only include a subset of arrays which are explicitly tracked.
  The "true" memory usage will be greater.
------------------------------------------------------------

------------------------------------------------------------
          Begin self-consistency iteration #    2

  Date     :  20250311, Time     :  153553.191
------------------------------------------------------------
  Pulay mixing of updated and previous charge densities.
  Available memory per node after mixing [GB]:   1031.75
  Renormalizing the density to the exact electron count on the 3D integration grid.
  | Formal number of electrons (from input files) :      24.0000000000
  | Integrated number of electrons on 3D grid     :      24.0000000000
  | Charge integration error                      :       0.0000000000
  | Normalization factor for density and gradient :       1.0000000000

  Evaluating partitioned Hartree potential by multipole expansion.
  | Original multipole sum: apparent total charge =   0.172184E-13
  | Sum of charges compensated after spline to logarithmic grids =   0.863904E-06
  | Analytical far-field extrapolation by fixed multipoles:
  | Hartree multipole sum: apparent total charge =   0.173660E-13
  Summing up the Hartree potential.
  Time summed over all CPUs for potential: real work        0.005 s, elapsed        0.007 s
  | RMS charge density error from multipole expansion :   0.222000E-02

  Integrating Hamiltonian matrix: batch-based integration.
  Time summed over all CPUs for integration: real work        0.429 s, elapsed        0.702 s => Consider using load balancing!

  Updating Kohn-Sham eigenvalues and eigenvectors using ELSI and the ELPA eigensolver.
  Starting ELPA eigensolver
  Finished transformation to standard eigenproblem
  | Time :     0.001 s
  Finished solving standard eigenproblem
  | Time :     0.003 s
  Finished back-transformation of eigenvectors
  | Time :     0.001 s

  Obtaining occupation numbers and electronic chemical potential using ELSI.
  | Note that, for insulating systems, the printed 'chemical potential' value is not uniquely defined.
  | It can be anywhere in the energy gap, as long as it correctly separates occupied and unoccupied states.
  | In systems with a gap, the physically relevant chemical potential is the VBM or HOMO.

  | Chemical potential (Fermi level):    -5.43938392 eV
  Highest occupied state (VBM) at     -7.70654243 eV
  | Occupation number:      2.00000000

  Lowest unoccupied state (CBM) at    -2.50655927 eV
  | Occupation number:      0.00000000

  Overall HOMO-LUMO gap:      5.19998316 eV.

  Checking to see if s.c.f. parameters should be adjusted.
  The system likely has a gap. Increased the default Pulay mixing parameter (charge_mix_param). Value:   0.200000 .
  Kept the default occupation width. Value:   0.010000 eV.

  Total energy components:
  | Sum of eigenvalues            :        -105.72377447 Ha       -2876.89027793 eV
  | XC energy correction          :         -23.04228323 Ha        -627.01242871 eV
  | XC potential correction       :          29.62537566 Ha         806.14748791 eV
  | Free-atom electrostatic energy:         -88.21377002 Ha       -2400.41881409 eV
  | Hartree energy correction     :          -2.51223666 Ha         -68.36143774 eV
  | Entropy correction            :           0.00000000 Ha           0.00000000 eV
  | ---------------------------
  | Total energy                  :        -189.86668872 Ha       -5166.53547056 eV
  | Total energy, T -> 0          :        -189.86668872 Ha       -5166.53547056 eV  <-- do not rely on this value for anything but (periodic) metals
  | Electronic free energy        :        -189.86668872 Ha       -5166.53547056 eV

  Derived energy quantities:
  | Kinetic energy                :         190.06754414 Ha        5172.00102455 eV
  | Electrostatic energy          :        -356.89194963 Ha       -9711.52406641 eV
  | Energy correction for multipole
  | error in Hartree potential    :          -0.00357041 Ha          -0.09715584 eV
  | Sum of eigenvalues per atom                           :        -575.37805559 eV
  | Total energy (T->0) per atom                          :       -1033.30709411 eV  <-- do not rely on this value for anything but (periodic) metals
  | Electronic free energy per atom                       :       -1033.30709411 eV
  Evaluating new KS density.
  Integration grid: deviation in total charge (<rho> - N_e) =   7.105427E-15

  Self-consistency convergence accuracy:
  | Change of charge density      :  0.3470E+00
  | Change of unmixed KS density  :  0.3427E-01
  | Change of sum of eigenvalues  :  0.5853E+02 eV
  | Change of total energy        :  0.1700E+01 eV


------------------------------------------------------------
  End self-consistency iteration #     2       :  max(cpu_time)    wall_clock(cpu1)
  | Time for this iteration                     :        0.049 s           0.049 s
  | Charge density update                       :        0.013 s           0.013 s
  | Density mixing                              :        0.001 s           0.001 s
  | Hartree multipole update                    :        0.001 s           0.001 s
  | Hartree multipole summation                 :        0.007 s           0.007 s
  | Integration                                 :        0.022 s           0.022 s
  | Solution of K.-S. eqns.                     :        0.005 s           0.005 s
  | Total energy evaluation                     :        0.000 s           0.000 s

  Partial memory accounting:
  | Current value for overall tracked memory usage:
  |   Minimum:        1.620 MB (on task 11)
  |   Maximum:        1.718 MB (on task  0)
  |   Average:        1.650 MB
  | Peak value for overall tracked memory usage:
  |   Minimum:        2.503 MB (on task 11 after allocating gradient_basis_wave)
  |   Maximum:        2.601 MB (on task  0 after allocating gradient_basis_wave)
  |   Average:        2.534 MB
  | Largest tracked array allocation so far:
  |   Minimum:        0.663 MB (gradient_basis_wave on task  0)
  |   Maximum:        0.663 MB (gradient_basis_wave on task  0)
  |   Average:        0.663 MB
  Note:  These values currently only include a subset of arrays which are explicitly tracked.
  The "true" memory usage will be greater.
------------------------------------------------------------

------------------------------------------------------------
          Begin self-consistency iteration #    3

  Date     :  20250311, Time     :  153553.240
------------------------------------------------------------
  Pulay mixing of updated and previous charge densities.
  Available memory per node after mixing [GB]:   1031.75
  Renormalizing the density to the exact electron count on the 3D integration grid.
  | Formal number of electrons (from input files) :      24.0000000000
  | Integrated number of electrons on 3D grid     :      24.0000000000
  | Charge integration error                      :      -0.0000000000
  | Normalization factor for density and gradient :       1.0000000000

  Evaluating partitioned Hartree potential by multipole expansion.
  | Original multipole sum: apparent total charge =   0.644461E-14
  | Sum of charges compensated after spline to logarithmic grids =   0.833250E-06
  | Analytical far-field extrapolation by fixed multipoles:
  | Hartree multipole sum: apparent total charge =   0.597725E-14
  Summing up the Hartree potential.
  Time summed over all CPUs for potential: real work        0.005 s, elapsed        0.007 s
  | RMS charge density error from multipole expansion :   0.381027E-02

  Integrating Hamiltonian matrix: batch-based integration.
  Time summed over all CPUs for integration: real work        0.431 s, elapsed        0.698 s => Consider using load balancing!

  Updating Kohn-Sham eigenvalues and eigenvectors using ELSI and the ELPA eigensolver.
  Starting ELPA eigensolver
  Finished transformation to standard eigenproblem
  | Time :     0.001 s
  Finished solving standard eigenproblem
  | Time :     0.003 s
  Finished back-transformation of eigenvectors
  | Time :     0.000 s

  Obtaining occupation numbers and electronic chemical potential using ELSI.
  | Note that, for insulating systems, the printed 'chemical potential' value is not uniquely defined.
  | It can be anywhere in the energy gap, as long as it correctly separates occupied and unoccupied states.
  | In systems with a gap, the physically relevant chemical potential is the VBM or HOMO.

  | Chemical potential (Fermi level):    -5.34607420 eV
  Highest occupied state (VBM) at     -8.06219812 eV
  | Occupation number:      2.00000000

  Lowest unoccupied state (CBM) at    -2.14401480 eV
  | Occupation number:      0.00000000

  Overall HOMO-LUMO gap:      5.91818332 eV.

  Total energy components:
  | Sum of eigenvalues            :        -105.56333981 Ha       -2872.52462856 eV
  | XC energy correction          :         -23.04853140 Ha        -627.18245021 eV
  | XC potential correction       :          29.63272521 Ha         806.34747956 eV
  | Free-atom electrostatic energy:         -88.21377002 Ha       -2400.41881409 eV
  | Hartree energy correction     :          -2.67377369 Ha         -72.75708384 eV
  | Entropy correction            :           0.00000000 Ha           0.00000000 eV
  | ---------------------------
  | Total energy                  :        -189.86668970 Ha       -5166.53549715 eV
  | Total energy, T -> 0          :        -189.86668970 Ha       -5166.53549715 eV  <-- do not rely on this value for anything but (periodic) metals
  | Electronic free energy        :        -189.86668970 Ha       -5166.53549715 eV

  Derived energy quantities:
  | Kinetic energy                :         189.54978670 Ha        5157.91212789 eV
  | Electrostatic energy          :        -356.36794500 Ha       -9697.26517483 eV
  | Energy correction for multipole
  | error in Hartree potential    :          -0.00554165 Ha          -0.15079602 eV
  | Sum of eigenvalues per atom                           :        -574.50492571 eV
  | Total energy (T->0) per atom                          :       -1033.30709943 eV  <-- do not rely on this value for anything but (periodic) metals
  | Electronic free energy per atom                       :       -1033.30709943 eV
  Evaluating new KS density.
  Integration grid: deviation in total charge (<rho> - N_e) =   0.000000E+00

  Self-consistency convergence accuracy:
  | Change of charge density      :  0.1748E+00
  | Change of unmixed KS density  :  0.2045E+00
  | Change of sum of eigenvalues  :  0.4366E+01 eV
  | Change of total energy        : -0.2659E-04 eV


------------------------------------------------------------
  End self-consistency iteration #     3       :  max(cpu_time)    wall_clock(cpu1)
  | Time for this iteration                     :        0.048 s           0.048 s
  | Charge density update                       :        0.013 s           0.013 s
  | Density mixing                              :        0.000 s           0.001 s
[...]

  Integrating Hamiltonian matrix: batch-based integration.
  Time summed over all CPUs for integration: real work        0.428 s, elapsed        0.701 s => Consider using load balancing!

  Updating Kohn-Sham eigenvalues and eigenvectors using ELSI and the ELPA eigensolver.
  Starting ELPA eigensolver
  Finished transformation to standard eigenproblem
  | Time :     0.001 s
  Finished solving standard eigenproblem
  | Time :     0.003 s
  Finished back-transformation of eigenvectors
  | Time :     0.000 s

  Obtaining occupation numbers and electronic chemical potential using ELSI.
  | Note that, for insulating systems, the printed 'chemical potential' value is not uniquely defined.
  | It can be anywhere in the energy gap, as long as it correctly separates occupied and unoccupied states.
  | In systems with a gap, the physically relevant chemical potential is the VBM or HOMO.

  | Chemical potential (Fermi level):    -5.07775728 eV
  Highest occupied state (VBM) at     -6.96389488 eV
  | Occupation number:      2.00000000

  Lowest unoccupied state (CBM) at    -1.58584035 eV
  | Occupation number:      0.00000000

  Overall HOMO-LUMO gap:      5.37805452 eV.

  Total energy components:
  | Sum of eigenvalues            :        -105.04291254 Ha       -2858.36308205 eV
  | XC energy correction          :         -23.12440724 Ha        -629.24713678 eV
  | XC potential correction       :          29.73188431 Ha         809.04573597 eV
  | Free-atom electrostatic energy:         -88.15759144 Ha       -2398.89011729 eV
  | Hartree energy correction     :          -3.26480914 Ha         -88.83997671 eV
  | Entropy correction            :           0.00000000 Ha           0.00000000 eV
  | ---------------------------
  | Total energy                  :        -189.85783604 Ha       -5166.29457686 eV
  | Total energy, T -> 0          :        -189.85783604 Ha       -5166.29457686 eV  <-- do not rely on this value for anything but (periodic) metals
  | Electronic free energy        :        -189.85783604 Ha       -5166.29457686 eV

  Derived energy quantities:
  | Kinetic energy                :         189.42883684 Ha        5154.62091460 eV
  | Electrostatic energy          :        -356.16226564 Ha       -9691.66835468 eV
  | Energy correction for multipole
  | error in Hartree potential    :          -0.00792993 Ha          -0.21578429 eV
  | Sum of eigenvalues per atom                           :        -571.67261641 eV
  | Total energy (T->0) per atom                          :       -1033.25891537 eV  <-- do not rely on this value for anything but (periodic) metals
  | Electronic free energy per atom                       :       -1033.25891537 eV
  Evaluating new KS density and force components.
  Integration grid: deviation in total charge (<rho> - N_e) =  -3.552714E-15

  atomic forces [eV/Ang]:
  -----------------------
  atom #    1
   Hellmann-Feynman              : -0.130658E+02 -0.762346E+01  0.102953E-02
   Ionic forces                  :  0.000000E+00  0.000000E+00  0.000000E+00
   Multipole                     :  0.228669E+00  0.411378E-01 -0.184210E-04
   Hartree pot. SCF incomplete   : -0.107461E-04 -0.623154E-06  0.145843E-05
   Pulay + GGA                   :  0.128391E+02  0.758273E+01 -0.106810E-02
   ----------------------------------------------------------------
   Total forces(   1)            :  0.188984E-02  0.402848E-03 -0.555347E-04
  atom #    2
   Hellmann-Feynman              :  0.118637E+02  0.534541E+01 -0.622417E-03
   Ionic forces                  :  0.000000E+00  0.000000E+00  0.000000E+00
   Multipole                     : -0.427744E+00 -0.258388E+00  0.182239E-04
   Hartree pot. SCF incomplete   :  0.171608E-04 -0.841681E-05 -0.199058E-05
   Pulay + GGA                   : -0.114354E+02 -0.508727E+01  0.532766E-03
   ----------------------------------------------------------------
   Total forces(   2)            :  0.608538E-03 -0.262357E-03 -0.734182E-04
  atom #    3
   Hellmann-Feynman              :  0.263200E+01 -0.743404E+00  0.298274E-03
   Ionic forces                  :  0.000000E+00  0.000000E+00  0.000000E+00
   Multipole                     :  0.266731E-03  0.446799E-01 -0.791353E-05
   Hartree pot. SCF incomplete   : -0.281049E-05 -0.146485E-04  0.566658E-05
   Pulay + GGA                   : -0.263489E+01  0.700532E+00 -0.955559E-04
   ----------------------------------------------------------------
   Total forces(   3)            : -0.263428E-02  0.179295E-02  0.200471E-03
  atom #    4
   Hellmann-Feynman              : -0.846026E-02  0.359714E-01 -0.707002E-04
   Ionic forces                  :  0.000000E+00  0.000000E+00  0.000000E+00
   Multipole                     :  0.287300E-01  0.456803E-01 -0.861629E-05
   Hartree pot. SCF incomplete   : -0.295661E-05 -0.197726E-05  0.361541E-06
   Pulay + GGA                   : -0.202365E-01 -0.815864E-01  0.756525E-05
   ----------------------------------------------------------------
   Total forces(   4)            :  0.302876E-04  0.633010E-04 -0.713897E-04
  atom #    5
   Hellmann-Feynman              :  0.414249E-01 -0.771111E-01  0.433224E-05
   Ionic forces                  :  0.000000E+00  0.000000E+00  0.000000E+00
   Multipole                     : -0.424296E-01  0.494523E-02  0.105847E-05
   Hartree pot. SCF incomplete   : -0.266575E-06 -0.224947E-05 -0.254084E-06
   Pulay + GGA                   :  0.177088E-02  0.722951E-01 -0.627467E-05
   ----------------------------------------------------------------
   Total forces(   5)            :  0.765966E-03  0.127021E-03 -0.113805E-05


  Self-consistency convergence accuracy:
  | Change of charge density      :  0.8146E-06
  | Change of unmixed KS density  :  0.7035E-06
  | Change of sum of eigenvalues  :  0.3271E-04 eV
  | Change of total energy        :  0.3009E-08 eV
  | Change of forces              :  0.1718E+01 eV/A

  Writing Kohn-Sham eigenvalues.

  State    Occupation    Eigenvalue [Ha]    Eigenvalue [eV]
      1       2.00000         -18.848127         -512.88362
      2       2.00000         -18.792487         -511.36960
      3       2.00000         -10.030777         -272.95133
      4       2.00000          -1.032647          -28.09976
      5       2.00000          -0.951577          -25.89374
      6       2.00000          -0.612968          -16.67969
      7       2.00000          -0.473230          -12.87725
      8       2.00000          -0.443714          -12.07408
      9       2.00000          -0.410809          -11.17867
     10       2.00000          -0.367182           -9.99154
     11       2.00000          -0.302020           -8.21837
     12       2.00000          -0.255918           -6.96389
     13       0.00000          -0.058279           -1.58584
     14       0.00000          -0.017348           -0.47206
     15       0.00000           0.013833            0.37642
     16       0.00000           0.098858            2.69006
     17       0.00000           0.111235            3.02686
     18       0.00000           0.118136            3.21463
     19       0.00000           0.144759            3.93909
     20       0.00000           0.171768            4.67404
     21       0.00000           0.187947            5.11430
     22       0.00000           0.211253            5.74848
     23       0.00000           0.236077            6.42397
     24       0.00000           0.261272            7.10958

  Highest occupied state (VBM) at     -6.96389488 eV
  | Occupation number:      2.00000000

  Lowest unoccupied state (CBM) at    -1.58584035 eV
  | Occupation number:      0.00000000

  Overall HOMO-LUMO gap:      5.37805452 eV.

  | Chemical Potential                          :    -5.07775728 eV
  | Note that, for insulating systems, the printed 'chemical potential' value is not uniquely defined.
  | It can be anywhere in the energy gap, as long as it correctly separates occupied and unoccupied states.
  | In systems with a gap, the physically relevant chemical potential is the VBM or HOMO.

  Self-consistency cycle converged.


------------------------------------------------------------
  End self-consistency iteration #     7       :  max(cpu_time)    wall_clock(cpu1)
  | Time for this iteration                     :        0.131 s           0.131 s
  | Charge density & force component update     :        0.062 s           0.062 s
  | Density mixing                              :        0.001 s           0.001 s
  | Hartree multipole update                    :        0.001 s           0.001 s
  | Hartree multipole summation                 :        0.024 s           0.024 s
  | Hartree pot. SCF incomplete forces          :        0.017 s           0.017 s
  | Integration                                 :        0.022 s           0.022 s
  | Solution of K.-S. eqns.                     :        0.004 s           0.004 s
  | Total energy evaluation                     :        0.000 s           0.000 s

  Partial memory accounting:
  | Current value for overall tracked memory usage:
  |   Minimum:        1.625 MB (on task 26)
  |   Maximum:        1.721 MB (on task  1)
  |   Average:        1.656 MB
  | Peak value for overall tracked memory usage:
  |   Minimum:        4.094 MB (on task 22 after allocating hessian_basis_wave)
  |   Maximum:        4.201 MB (on task  0 after allocating hessian_basis_wave)
  |   Average:        4.136 MB
  | Largest tracked array allocation so far:
  |   Minimum:        1.337 MB (hessian_basis_wave on task  4)
  |   Maximum:        1.346 MB (hessian_basis_wave on task  0)
  |   Average:        1.346 MB
  Note:  These values currently only include a subset of arrays which are explicitly tracked.
  The "true" memory usage will be greater.
------------------------------------------------------------
  Removing unitary transformations (pure translations, rotations) from forces on atoms.
  Atomic forces before filtering:
  | Net force on center of mass :   0.660354E-03  0.212377E-02 -0.100941E-05 eV/A
  | Net torque on center of mass:   0.150305E-05 -0.160136E-06 -0.266984E-02 eV
  Atomic forces after filtering:
  | Net force on center of mass :  -0.261337E-18  0.435562E-18  0.224587E-19 eV/A
  | Net torque on center of mass:  -0.380960E-20  0.216084E-20 -0.138294E-18 eV

  Energy and forces in a compact form:
  | Total energy uncorrected      :         -0.516629457686377E+04 eV
  | Total energy corrected        :         -0.516629457686377E+04 eV  <-- do not rely on this value for anything but (periodic) metals
  | Electronic free energy        :         -0.516629457686377E+04 eV
  Total atomic forces (unitary forces cleaned) [eV/Ang]:
  |    1          0.166941593915272E-02         -0.377939009385359E-03         -0.552765149565260E-04
  |    2          0.367232460712584E-03         -0.195610910197828E-03         -0.735781238837715E-04
  |    3         -0.264784510951418E-02          0.147227514400852E-02          0.200770587301580E-03
  |    4          0.427253567630938E-03         -0.293018573792077E-03         -0.705697049585768E-04
  |    5          0.183943142017930E-03         -0.605706650633260E-03         -0.134624350270532E-05

  ------------------------------------ 
  Start decomposition of the XC Energy 
  ------------------------------------ 
  X and C from original XC functional choice 
  Hartree-Fock Energy :          0.000000000 Ha              0.000000000 eV
  X Energy            :        -22.324485587 Ha           -607.480161065 eV
  C Energy            :         -0.799921655 Ha            -21.766975714 eV
  XC Energy w/o HF    :        -23.124407241 Ha           -629.247136779 eV
  Total XC Energy     :        -23.124407241 Ha           -629.247136779 eV
  ------------------------------------ 
  LDA X and C from self-consistent density 
  X Energy LDA        :        -20.272789684 Ha           -551.650674989 eV
  C Energy LDA        :         -1.615585160 Ha            -43.962308995 eV
  ------------------------------------ 
  End decomposition of the XC Energy 
  ------------------------------------ 

------------------------------------------------------------
  Relaxation / MD: End force evaluation.       :  max(cpu_time)    wall_clock(cpu1)
  | Time for this force evaluation              :        0.485 s           0.487 s

------------------------------------------------------------
  Geometry optimization: Attempting to predict improved coordinates.

  Removing unitary transformations (pure translations, rotations) from forces on atoms.
  Atomic forces before filtering:
  | Net force on center of mass :  -0.261337E-18  0.435562E-18  0.224587E-19 eV/A
  | Net torque on center of mass:  -0.380960E-20  0.216084E-20 -0.138294E-18 eV
  Atomic forces after filtering:
  | Net force on center of mass :  -0.174225E-18  0.871124E-19  0.493410E-20 eV/A
  | Net torque on center of mass:  -0.351474E-19  0.540210E-20  0.460979E-19 eV
  Net remaining forces (excluding translations, rotations) in present geometry:
  || Forces on atoms   || =   0.264785E-02 eV/A.
  Maximum force component is  0.264785E-02 eV/A.
  Present geometry is converged.

------------------------------------------------------------
  Final atomic structure:
                         x [A]             y [A]             z [A]
            atom        -1.18858981        0.17204448        0.00004233  O
            atom         1.08598725        0.22808010       -0.00001524  O
            atom         0.04623286       -0.38312059        0.00005087  C
            atom        -0.04942104       -1.48488773        0.00016312  H
            atom        -1.05960926        1.14248374       -0.00004108  H
------------------------------------------------------------

------------------------------------------------------------------------------
  Final output of selected total energy values:

  The following output summarizes some interesting total energy values
  at the end of a run (AFTER all relaxation, molecular dynamics, etc.).

  | Total energy of the DFT / Hartree-Fock s.c.f. calculation      :          -5166.294576864 eV
  | Final zero-broadening corrected energy (caution - metals only) :          -5166.294576864 eV
  | For reference only, the value of 1 Hartree used in FHI-aims is :             27.211384500 eV

  Before relying on these values, please be sure to understand exactly which
  total energy value is referred to by a given number. Different objects may
  all carry the same name 'total energy'. Definitions:

  Total energy of the DFT / Hartree-Fock s.c.f. calculation:
  | Note that this energy does not include ANY quantities calculated after the
  | s.c.f. cycle, in particular not ANY RPA, MP2, etc. many-body perturbation terms.

  Final zero-broadening corrected energy:
  | For metallic systems only, a broadening of the occupation numbers at the Fermi
  | level can be extrapolated back to zero broadening by an electron-gas inspired
  | formula. For all systems that are not real metals, this value can be
  | meaningless and should be avoided.

------------------------------------------------------------------------------
  Methods described in the following list of references were used in this FHI-aims run.
  If you publish the results, please make sure to cite these reference if they apply.
  FHI-aims is an academic code, and for our developers (often, Ph.D. students
  and postdocs), scientific credit in the community is essential.
  Thank you for helping us!

  For any use of FHI-aims, please cite:

    Volker Blum, Ralf Gehrke, Felix Hanke, Paula Havu, Ville Havu,
    Xinguo Ren, Karsten Reuter, and Matthias Scheffler
    'Ab initio molecular simulations with numeric atom-centered orbitals'
    Computer Physics Communications 180, 2175-2196 (2009)
    http://doi.org/10.1016/j.cpc.2009.06.022


  The ELSI infrastructure was used in your run to solve the Kohn-Sham electronic structure.
  Please check out https://wordpress.elsi-interchange.org to learn more.
  If scalability is important for your project, please acknowledge ELSI by citing:

    V. W-z. Yu, F. Corsetti, A. Garcia, W. P. Huhn, M. Jacquelin, W. Jia,
    B. Lange, L. Lin, J. Lu, W. Mi, A. Seifitokaldani, A. Vazquez-Mayagoitia,
    C. Yang, H. Yang, and V. Blum
    'ELSI: A unified software interface for Kohn-Sham electronic structure solvers'
    Computer Physics Communications 222, 267-285 (2018).
    http://doi.org/10.1016/j.cpc.2017.09.007


  For the real-space grid partitioning and parallelization used in this calculation, please cite:

    Ville Havu, Volker Blum, Paula Havu, and Matthias Scheffler,
    'Efficient O(N) integration for all-electron electronic structure calculation'
    'using numerically tabulated basis functions'
    Journal of Computational Physics 228, 8367-8379 (2009).
    http://doi.org/10.1016/j.jcp.2009.08.008

  Of course, there are many other important community references, e.g., those cited in the
  above references. Our list is limited to references that describe implementations in the
  FHI-aims code. The reason is purely practical (length of this list) - please credit others as well.

------------------------------------------------------------
          Leaving FHI-aims.
          Date     :  20250311, Time     :  153557.879

          Computational steps:
          | Number of self-consistency cycles          :           76
          | Number of SCF (re)initializations          :            8
          | Number of relaxation steps                 :            7

          Detailed time accounting                     :  max(cpu_time)    wall_clock(cpu1)
          | Total time                                  :        5.189 s           5.202 s
          | Preparation time                            :        0.199 s           0.196 s
          | Boundary condition initalization            :        0.065 s           0.061 s
          | Grid partitioning                           :        0.172 s           0.172 s
          | Preloading free-atom quantities on grid     :        0.067 s           0.067 s
          | Free-atom superposition energy              :        0.020 s           0.022 s
          | Total time for integrations                 :        1.772 s           1.772 s
          | Total time for solution of K.-S. equations  :        0.352 s           0.355 s
          | Total time for EV reorthonormalization      :        0.006 s           0.007 s
          | Total time for density & force components   :        1.442 s           1.438 s
          | Total time for mixing                       :        0.034 s           0.028 s
          | Total time for Hartree multipole update     :        0.082 s           0.083 s
          | Total time for Hartree multipole sum        :        0.669 s           0.673 s
          | Total time for total energy evaluation      :        0.006 s           0.006 s
          | Total time NSC force correction             :        0.121 s           0.120 s
          | Total time for scaled ZORA corrections      :        0.000 s           0.000 s

          Partial memory accounting:
          | Residual value for overall tracked memory usage across tasks:     0.000000 MB (should be 0.000000 MB)
          | Peak values for overall tracked memory usage:
          |   Minimum:        4.094 MB (on task 22 after allocating hessian_basis_wave)
          |   Maximum:        4.201 MB (on task  0 after allocating hessian_basis_wave)
          |   Average:        4.136 MB
          | Largest tracked array allocation:
          |   Minimum:        1.337 MB (hessian_basis_wave on task  4)
          |   Maximum:        1.346 MB (hessian_basis_wave on task  0)
          |   Average:        1.346 MB
          Note:  These values currently only include a subset of arrays which are explicitly tracked.
          The "true" memory usage will be greater.

          Have a nice day.
------------------------------------------------------------
