------------------------------------------------------------
          Invoking FHI-aims ...

          When using FHI-aims, please cite the following reference:

            Volker Blum, Ralf Gehrke, Felix Hanke, Paula Havu,
            Ville Havu, Xinguo Ren, Karsten Reuter, and Matthias Scheffler,
            'Ab Initio Molecular Simulations with Numeric Atom-Centered Orbitals',
            Computer Physics Communications 180, 2175-2196 (2009)

          In addition, many other developments in FHI-aims are likely important for
          your particular application. If so, please cite them. A partial list of references
          is written at the end of this file. Thank you for giving credit to the authors
          of these developments.

          For general information about FHI-aims please find us at

            https://fhi-aims.org

          Online tutorials can be found at

            https://fhi-aims-club.gitlab.io/tutorials/tutorials-overview/

          For any questions about FHI-aims, please visit our slack channel at

            https://fhi-aims.slack.com

          and our main development and support site at

            https://aims-git.rz-berlin.mpg.de .

          The latter site, in particular, has a wiki to collect information, as well
          as an issue tracker to log discussions, suggest improvements, and report issues
          or bugs. https://aims-git.rz-berlin.mpg.de is also the main development site
          of the project and all new and updated code versions can be obtained there.
          Please send an email to aims-coordinators@fhi-berlin.mpg.de and we will add
          you to these sites. They are for you and everyone is welcome there.

------------------------------------------------------------



  Date     :  20241208, Time     :  133211.991
  Time zero on CPU 1             :   0.432230000000000E+00  s.
  Internal wall clock time zero  :           502896731.991  s.

  FHI-aims created a unique identifier for this run for later identification
  aims_uuid : C7397F42-737C-458C-AC1D-9F1FF0713B9B

  Build configuration of the current instance of FHI-aims
  -------------------------------------------------------
  FHI-aims version      : 240605
  Commit number         : b001b2e18
  CMake host system     : Linux-6.5.0-41-generic
  CMake version         : 3.22.1
  Fortran compiler      : /opt/intel/oneapi/mpi/2021.12/bin/mpiifort (IntelLLVM) version 2024.1.0
  Fortran compiler flags: -fc=ifx -O3 -ip -fp-model precise
  C compiler            : /opt/intel/oneapi/mpi/2021.12/bin/mpiicc (IntelLLVM) version 2024.1.0
  C compiler flags      : -cc=icx -O3 -ip -fp-model precise -std=gnu99
  C++ compiler          : /opt/intel/oneapi/mpi/2021.12/bin/mpiicpc (IntelLLVM) version 2024.1.0
  C++ compiler flags    : -cxx=icpx -O3 -ip -fp-model precise -std=c++11
  HIP compiler          :
  HIP compiler flags    :
  HIP GPU arch          :
  Using MPI
  Using ScaLAPACK
  Using LibXC
  Using i-PI
  Using RLSY
  Linking against: /opt/intel/oneapi/mkl/2024.1/lib/intel64/libmkl_intel_lp64.so
                   /opt/intel/oneapi/mkl/2024.1/lib/intel64/libmkl_sequential.so
                   /opt/intel/oneapi/mkl/2024.1/lib/intel64/libmkl_core.so
                   /opt/intel/oneapi/mkl/2024.1/lib/intel64/libmkl_blacs_intelmpi_lp64.so
                   /opt/intel/oneapi/mkl/2024.1/lib/intel64/libmkl_scalapack_lp64.so
                   /opt/intel/oneapi/mkl/2024.1/lib/intel64/libmkl_core.so

  Using       32 parallel tasks.
  Task        0 on host RSL-arvutus reporting.
  Task        1 on host RSL-arvutus reporting.
  Task        2 on host RSL-arvutus reporting.
  Task        3 on host RSL-arvutus reporting.
  Task        4 on host RSL-arvutus reporting.
  Task        5 on host RSL-arvutus reporting.
  Task        6 on host RSL-arvutus reporting.
  Task        7 on host RSL-arvutus reporting.
  Task        8 on host RSL-arvutus reporting.
  Task        9 on host RSL-arvutus reporting.
  Task       10 on host RSL-arvutus reporting.
  Task       11 on host RSL-arvutus reporting.
  Task       12 on host RSL-arvutus reporting.
  Task       13 on host RSL-arvutus reporting.
  Task       14 on host RSL-arvutus reporting.
  Task       15 on host RSL-arvutus reporting.
  Task       16 on host RSL-arvutus reporting.
  Task       17 on host RSL-arvutus reporting.
  Task       18 on host RSL-arvutus reporting.
  Task       19 on host RSL-arvutus reporting.
  Task       20 on host RSL-arvutus reporting.
  Task       21 on host RSL-arvutus reporting.
  Task       22 on host RSL-arvutus reporting.
  Task       23 on host RSL-arvutus reporting.
  Task       24 on host RSL-arvutus reporting.
  Task       25 on host RSL-arvutus reporting.
  Task       26 on host RSL-arvutus reporting.
  Task       27 on host RSL-arvutus reporting.
  Task       28 on host RSL-arvutus reporting.
  Task       29 on host RSL-arvutus reporting.
  Task       30 on host RSL-arvutus reporting.
  Task       31 on host RSL-arvutus reporting.

  Memory overcommitment is allowed on your operating system.

  Obtaining array dimensions for all initial allocations:
  
  -----------------------------------------------------------------------
  Parsing control.in (first pass over file, find array dimensions only).
  The contents of control.in will be repeated verbatim below
  unless switched off by setting 'verbatim_writeout .false.' .
  in the first line of control.in .
  -----------------------------------------------------------------------
  
  xc              pbe
  relativistic    zora scalar 1.0e-12
  k_grid		8 8 1
  output		Mulliken
  
  
  ################################################################################
  #
  #  FHI-aims code project
  #  VB, Fritz-Haber Institut, 2009
  #
  #  Suggested "light" defaults for H atom (to be pasted into control.in file)
  #  Be sure to double-check any results obtained with these settings for post-processing,
  #  e.g., with the "tight" defaults and larger basis sets.
  #
  ################################################################################
    species        H
  #     global species definitions
      nucleus             1
      mass                1.00794
  #
      l_hartree           4
  #
      cut_pot             3.5  1.5  1.0
      basis_dep_cutoff    1e-4
  #
      radial_base         24 5.0
      radial_multiplier   1
      angular_grids       specified
        division   0.2421   50
        division   0.3822  110
        division   0.4799  194
        division   0.5341  302
  #      division   0.5626  434
  #      division   0.5922  590
  #      division   0.6542  770
  #      division   0.6868 1202
  #      outer_grid  770
        outer_grid  302
  ################################################################################
  #
  #  Definition of "minimal" basis
  #
  ################################################################################
  #     valence basis states
      valence      1  s   1.
  #     ion occupancy
      ion_occ      1  s   0.5
  ################################################################################
  #
  #  Suggested additional basis functions. For production calculations,
  #  uncomment them one after another (the most important basis functions are
  #  listed first).
  #
  #  Basis constructed for dimers: 0.5 A, 0.7 A, 1.0 A, 1.5 A, 2.5 A
  #
  ################################################################################
  #  "First tier" - improvements: -1014.90 meV to -62.69 meV
       hydro 2 s 2.1
       hydro 2 p 3.5
  #  "Second tier" - improvements: -12.89 meV to -1.83 meV
  #     hydro 1 s 0.85
  #     hydro 2 p 3.7
  #     hydro 2 s 1.2
  #     hydro 3 d 7
  #  "Third tier" - improvements: -0.25 meV to -0.12 meV
  #     hydro 4 f 11.2
  #     hydro 3 p 4.8
  #     hydro 4 d 9
  #     hydro 3 s 3.2
  ################################################################################
  #
  #  FHI-aims code project
  #  VB, Fritz-Haber Institut, 2009
  #
  #  Suggested "light" defaults for O atom (to be pasted into control.in file)
  #  Be sure to double-check any results obtained with these settings for post-processing,
  #  e.g., with the "tight" defaults and larger basis sets.
  #
  ################################################################################
    species        O
  #     global species definitions
      nucleus             8
      mass                15.9994
  #
      l_hartree           4
  #
      cut_pot             3.5  1.5  1.0
      basis_dep_cutoff    1e-4
  #
      radial_base         36 5.0
      radial_multiplier   1
       angular_grids specified
        division   0.2659   50
        division   0.4451  110
        division   0.6052  194
        division   0.7543  302
  #      division   0.8014  434
  #      division   0.8507  590
  #      division   0.8762  770
  #      division   0.9023  974
  #      division   1.2339 1202
  #      outer_grid 974
        outer_grid 302
  ################################################################################
  #
  #  Definition of "minimal" basis
  #
  ################################################################################
  #     valence basis states
      valence      2  s   2.
      valence      2  p   4.
  #     ion occupancy
      ion_occ      2  s   1.
      ion_occ      2  p   3.
  ################################################################################
  #
  #  Suggested additional basis functions. For production calculations,
  #  uncomment them one after another (the most important basis functions are
  #  listed first).
  #
  #  Constructed for dimers: 1.0 A, 1.208 A, 1.5 A, 2.0 A, 3.0 A
  #
  ################################################################################
  #  "First tier" - improvements: -699.05 meV to -159.38 meV
       hydro 2 p 1.8
       hydro 3 d 7.6
       hydro 3 s 6.4
  #  "Second tier" - improvements: -49.91 meV to -5.39 meV
  #     hydro 4 f 11.6
  #     hydro 3 p 6.2
  #     hydro 3 d 5.6
  #     hydro 5 g 17.6
  #     hydro 1 s 0.75
  #  "Third tier" - improvements: -2.83 meV to -0.50 meV
  #     ionic 2 p auto
  #     hydro 4 f 10.8
  #     hydro 4 d 4.7
  #     hydro 2 s 6.8
  #  "Fourth tier" - improvements: -0.40 meV to -0.12 meV
  #     hydro 3 p 5
  #     hydro 3 s 3.3
  #     hydro 5 g 15.6
  #     hydro 4 f 17.6
  #     hydro 4 d 14
  # Further basis functions - -0.08 meV and below
  #     hydro 3 s 2.1
  #     hydro 4 d 11.6
  #     hydro 3 p 16
  #     hydro 2 s 17.2
  ################################################################################
  #
  #  FHI-aims code project
  #  VB, Fritz-Haber Institut, 2009
  #
  #  Suggested "light" defaults for Ti atom (to be pasted into control.in file)
  #  Be sure to double-check any results obtained with these settings for post-processing,
  #  e.g., with the "tight" defaults and larger basis sets.
  #
  ################################################################################
    species        Ti
  #     global species definitions
      nucleus             22
      mass                47.867
  #
      l_hartree           4
  #
      cut_pot             3.5          1.5  1.0
      basis_dep_cutoff    1e-4
  #
      radial_base         48 5.0
      radial_multiplier   1
      angular_grids       specified
        division   0.5171   50
        division   0.9824  110
        division   1.2917  194
        division   1.4940  302
  #      division   1.6934  434
  #      division   1.8425  590
  #      division   2.1901  770
  #      division   2.2896  974
  #      division   2.8244 1202
  #      outer_grid  974
        outer_grid  302
  ################################################################################
  #
  #  Definition of "minimal" basis
  #
  ################################################################################
  #     valence basis states
      valence      4  s   2.
      valence      3  p   6.
      valence      3  d   2.
  #     ion occupancy
      ion_occ      4  s   1.
      ion_occ      3  p   6.
      ion_occ      3  d   1.
  ################################################################################
  #
  #  Suggested additional basis functions. For production calculations,
  #  uncomment them one after another (the most important basis functions are
  #  listed first).
  #
  #  Constructed for dimers: 1.6 A, 1.85 A, 2.5 A, 3.25 A, 4.25 A
  #
  ################################################################################
  #  "First tier" - improvements: -396.25 meV to -19.41 meV
       hydro 4 f 8
       hydro 3 d 2.7
       ionic 4 p auto
  #     hydro 5 g 11.6
       ionic 4 s auto
  #  "Second tier" - improvements: -16.30 meV to -2.03 meV
  #     hydro 3 d 4.4
  #     hydro 6 h 16
  #     hydro 4 f 9.4
  #     hydro 4 p 4.5
  #     hydro 1 s 0.5
  #  "Third tier" - improvements: -6.28 meV to -0.37 meV
  #     hydro 4 d 6.4
  #     hydro 4 f 10
  #     hydro 5 g 12
  #     hydro 2 p 1.7
  #     hydro 6 h 16.4
  #     hydro 4 s 3.8
  #  Further basis functions: -0.45 meV and smaller improvements
  #     hydro 3 d 8.8
  #     hydro 5 p 18
  #     hydro 4 f 22.4
  #     hydro 5 f 7.2  # -0.16 meV
  #     hydro 3 d 2.1  # -0.11 meV
  #     hydro 5 g 7.4  # -0.09 meV
  
  -----------------------------------------------------------------------
  Completed first pass over input file control.in .
  -----------------------------------------------------------------------
  
  
  -----------------------------------------------------------------------
  Parsing geometry.in (first pass over file, find array dimensions only).
  The contents of geometry.in will be repeated verbatim below
  unless switched off by setting 'verbatim_writeout .false.' .
  in the first line of geometry.in .
  -----------------------------------------------------------------------
  
  lattice_vector 6.566127 0.000000 0.000000
  lattice_vector 0.000000 5.945766 0.000000
  lattice_vector 0.000000 0.000000 22.332457
  
  atom 6.566088 0.000000 8.231677 O
  atom 2.006320 1.486442 9.508423 O
  atom 3.283044 0.000000 9.508446 Ti
  atom 6.566107 1.486442 9.508446 Ti
  atom 4.559775 1.486442 9.508468 O
  atom 0.000007 0.000000 10.785214 O
  atom 3.283004 0.000000 11.514905 O
  atom 5.289363 1.486442 12.791652 O
  atom 6.566094 0.000000 12.791674 Ti
  atom 3.283031 1.486442 12.791674 Ti
  atom 1.276691 1.486442 12.791719 O
  atom 3.283050 0.000000 14.068443 O
  atom 6.566088 2.972883 8.231677 O
  atom 2.006320 4.459325 9.508423 O
  atom 3.283044 2.972883 9.508446 Ti
  atom 6.566107 4.459325 9.508446 Ti
  atom 4.559775 4.459325 9.508468 O
  atom 0.000007 2.972883 10.785214 O
  atom 3.283004 2.972883 11.514905 O
  atom 5.289363 4.459325 12.791652 O
  atom 6.566094 2.972883 12.791674 Ti
  atom 3.283031 4.459325 12.791674 Ti
  atom 1.276691 4.459325 12.791719 O
  atom 3.283050 2.972883 14.068443 O
  atom 3.283050 2.972883 15.068443 H
  atom 3.283050 0.000000 15.068443 H
  atom 6.566088 0.000000 7.231677 H
  atom 6.566088 2.972883 7.231677 H
  atom 6.566088 2.972883 14.791674 O
  atom 6.566088 0.000000 14.791674 O
  atom 6.566088 2.972883 15.791674 H
  atom 6.566088 0.000000 15.791674 H
  atom 3.283050 2.972883 7.508446 O
  atom 3.283050 0.000000 7.508446 O
  atom 3.283050 2.972883 6.508446 H
  atom 3.283050 0.000000 6.508446 H
  
  -----------------------------------------------------------------------
  Completed first pass over input file geometry.in .
  -----------------------------------------------------------------------
  

  Basic array size parameters:
  | Number of species                 :        3
  | Number of atoms                   :       36
  | Number of lattice vectors         :        3
  | Max. basis fn. angular momentum   :        3
  | Max. atomic/ionic basis occupied n:        4
  | Max. number of basis fn. types    :        3
  | Max. radial fns per species/type  :        7
  | Max. logarithmic grid size        :     1383
  | Max. radial integration grid size :       48
  | Max. angular integration grid size:      302
  | Max. angular grid division number :        8
  | Radial grid for Hartree potential :     1383
  | Number of spin channels           :        1

------------------------------------------------------------
          Reading file control.in.
------------------------------------------------------------
  XC: Using PBE gradient-corrected functionals.
  Scalar relativistic treatment of kinetic energy: ZORA.
  Threshold value for ZORA:   0.100000E-11
  Found k-point grid:         8         8         1
  Mulliken charge analysis will be performed and summarised to the main output.
  Full Mulliken charge analysis will be written to file 'Mulliken.out'.
 
  Reading configuration options for species H                   .
  | Found nuclear charge :   1.0000
  | Found atomic mass :    1.00794000000000      amu
  | Found l_max for Hartree potential  :   4
  | Found cutoff potl. onset [A], width [A], scale factor :    3.50000    1.50000    1.00000
  | Threshold for basis-dependent cutoff potential is   0.100000E-03
  | Found data for basic radial integration grid :    24 points, outermost radius =    5.000 A
  | Found multiplier for basic radial grid :   1
  | Found angular grid specification: user-specified.
  | Specified grid contains     5 separate shells.
  | Check grid settings after all constraints further below.
  | Found free-atom valence shell :  1 s   1.000
  | Found free-ion valence shell :  1 s   0.500
  | Found hydrogenic basis function :  2 s   2.100
  | Found hydrogenic basis function :  2 p   3.500
 | Encountered keyword species, ending the description of species H                   .
  Species H                   : Missing cutoff potential type.
  Defaulting to exp(1/x)/(1-x)^2 type cutoff potential.
  Species H : No 'logarithmic' tag. Using default grid for free atom:
  | Default logarithmic grid data [bohr] : 0.1000E-03 0.1000E+03 0.1012E+01
  Species H : On-site basis accuracy parameter (for Gram-Schmidt orthonormalisation) not specified.
  Using default value basis_acc =  0.1000000E-03.
  Species H                   : Using default innermost maximum threshold i_radial=  2 for radial functions.
  Species H                   : Default cutoff onset for free atom density etc. : 0.35000000E+01 AA.
  Species H                   : Basic radial grid will be enhanced according to radial_multiplier =   1, to contain    24 grid points.
 
  Reading configuration options for species O                   .
  | Found nuclear charge :   8.0000
  | Found atomic mass :    15.9994000000000      amu
  | Found l_max for Hartree potential  :   4
  | Found cutoff potl. onset [A], width [A], scale factor :    3.50000    1.50000    1.00000
  | Threshold for basis-dependent cutoff potential is   0.100000E-03
  | Found data for basic radial integration grid :    36 points, outermost radius =    5.000 A
  | Found multiplier for basic radial grid :   1
  | Found angular grid specification: user-specified.
  | Specified grid contains     5 separate shells.
  | Check grid settings after all constraints further below.
  | Found free-atom valence shell :  2 s   2.000
  | Found free-atom valence shell :  2 p   4.000
  | Found free-ion valence shell :  2 s   1.000
  | Found free-ion valence shell :  2 p   3.000
  | Found hydrogenic basis function :  2 p   1.800
  | Found hydrogenic basis function :  3 d   7.600
  | Found hydrogenic basis function :  3 s   6.400
 | Encountered keyword species, ending the description of species O                   .
  Species O                   : Missing cutoff potential type.
  Defaulting to exp(1/x)/(1-x)^2 type cutoff potential.
  Species O : No 'logarithmic' tag. Using default grid for free atom:
  | Default logarithmic grid data [bohr] : 0.1000E-03 0.1000E+03 0.1012E+01
  Species O : On-site basis accuracy parameter (for Gram-Schmidt orthonormalisation) not specified.
  Using default value basis_acc =  0.1000000E-03.
  Species O                   : Using default innermost maximum threshold i_radial=  2 for radial functions.
  Species O                   : Default cutoff onset for free atom density etc. : 0.35000000E+01 AA.
  Species O                   : Basic radial grid will be enhanced according to radial_multiplier =   1, to contain    36 grid points.
 
  Reading configuration options for species Ti                  .
  | Found nuclear charge :  22.0000
  | Found atomic mass :    47.8670000000000      amu
  | Found l_max for Hartree potential  :   4
  | Found cutoff potl. onset [A], width [A], scale factor :    3.50000    1.50000    1.00000
  | Threshold for basis-dependent cutoff potential is   0.100000E-03
  | Found data for basic radial integration grid :    48 points, outermost radius =    5.000 A
  | Found multiplier for basic radial grid :   1
  | Found angular grid specification: user-specified.
  | Specified grid contains     5 separate shells.
  | Check grid settings after all constraints further below.
  | Found free-atom valence shell :  4 s   2.000
  | Found free-atom valence shell :  3 p   6.000
  | Found free-atom valence shell :  3 d   2.000
  | Found free-ion valence shell :  4 s   1.000
  | Found free-ion valence shell :  3 p   6.000
  | Found free-ion valence shell :  3 d   1.000
  | Found hydrogenic basis function :  4 f   8.000
  | Found hydrogenic basis function :  3 d   2.700
  | Found ionic basis function :  4 p , default cutoff radius.
  | Found ionic basis function :  4 s , default cutoff radius.
  Species Ti                  : Missing cutoff potential type.
  Defaulting to exp(1/x)/(1-x)^2 type cutoff potential.
  Species Ti: No 'logarithmic' tag. Using default grid for free atom:
  | Default logarithmic grid data [bohr] : 0.1000E-03 0.1000E+03 0.1012E+01
  | Will include ionic basis functions of  2.0-fold positive Ti                   ion.
  Species Ti: On-site basis accuracy parameter (for Gram-Schmidt orthonormalisation) not specified.
  Using default value basis_acc =  0.1000000E-03.
  Species Ti                  : Using default innermost maximum threshold i_radial=  2 for radial functions.
  Species Ti                  : Default cutoff onset for free atom density etc. : 0.35000000E+01 AA.
  Species Ti                  : Basic radial grid will be enhanced according to radial_multiplier =   1, to contain    48 grid points.
 
  Finished reading input file 'control.in'.
 
------------------------------------------------------------


------------------------------------------------------------
          Reading geometry description geometry.in.
------------------------------------------------------------
  | The smallest distance between any two atoms is         1.00000000 AA.
  | The first atom of this pair is atom number                     33 .
  | The second atom of this pair is atom number                    35 .
  | Wigner-Seitz cell of the first atom image           0     0     0 .
  | (The Wigner-Seitz cell of the second atom is 0 0 0  by definition.)

  Symmetry information by spglib:
  | Precision set to  0.1E-04
  | Number of Operations  : 4
  | Space group           : 6
  | International         : Pm      /op
  | Schoenflies           : Cs^1
  Input structure read successfully.
  The structure contains       36 atoms,  and a total of        344.000 electrons.

  Input geometry:
  | Unit cell:
  |        6.56612700        0.00000000        0.00000000
  |        0.00000000        5.94576600        0.00000000
  |        0.00000000        0.00000000       22.33245700
  | Atomic structure:
  |       Atom                x [A]            y [A]            z [A]
  |    1: Species O             6.56608800        0.00000000        8.23167700
  |    2: Species O             2.00632000        1.48644200        9.50842300
  |    3: Species Ti            3.28304400        0.00000000        9.50844600
  |    4: Species Ti            6.56610700        1.48644200        9.50844600
  |    5: Species O             4.55977500        1.48644200        9.50846800
  |    6: Species O             0.00000700        0.00000000       10.78521400
  |    7: Species O             3.28300400        0.00000000       11.51490500
  |    8: Species O             5.28936300        1.48644200       12.79165200
  |    9: Species Ti            6.56609400        0.00000000       12.79167400
  |   10: Species Ti            3.28303100        1.48644200       12.79167400
  |   11: Species O             1.27669100        1.48644200       12.79171900
  |   12: Species O             3.28305000        0.00000000       14.06844300
  |   13: Species O             6.56608800        2.97288300        8.23167700
  |   14: Species O             2.00632000        4.45932500        9.50842300
  |   15: Species Ti            3.28304400        2.97288300        9.50844600
  |   16: Species Ti            6.56610700        4.45932500        9.50844600
  |   17: Species O             4.55977500        4.45932500        9.50846800
  |   18: Species O             0.00000700        2.97288300       10.78521400
  |   19: Species O             3.28300400        2.97288300       11.51490500
  |   20: Species O             5.28936300        4.45932500       12.79165200
  |   21: Species Ti            6.56609400        2.97288300       12.79167400
  |   22: Species Ti            3.28303100        4.45932500       12.79167400
  |   23: Species O             1.27669100        4.45932500       12.79171900
  |   24: Species O             3.28305000        2.97288300       14.06844300
  |   25: Species H             3.28305000        2.97288300       15.06844300
  |   26: Species H             3.28305000        0.00000000       15.06844300
  |   27: Species H             6.56608800        0.00000000        7.23167700
  |   28: Species H             6.56608800        2.97288300        7.23167700
  |   29: Species O             6.56608800        2.97288300       14.79167400
  |   30: Species O             6.56608800        0.00000000       14.79167400
  |   31: Species H             6.56608800        2.97288300       15.79167400
  |   32: Species H             6.56608800        0.00000000       15.79167400
  |   33: Species O             3.28305000        2.97288300        7.50844600
  |   34: Species O             3.28305000        0.00000000        7.50844600
  |   35: Species H             3.28305000        2.97288300        6.50844600
  |   36: Species H             3.28305000        0.00000000        6.50844600

  Lattice parameters for 3D lattice (in Angstroms) :     6.566127    5.945766   22.332457
  Angle(s) between unit vectors (in degrees)       :    90.000000   90.000000   90.000000


  Quantities derived from the lattice vectors (in Angstrom^-1):
  | Reciprocal lattice vector 1:  0.956909  0.000000  0.000000
  | Reciprocal lattice vector 2:  0.000000  1.056750  0.000000
  | Reciprocal lattice vector 3:  0.000000  0.000000  0.281348
  | Unit cell volume                               :   0.871874E+03  Angstrom^3

  Fractional coordinates:
                         L1                L2                L3
       atom_frac         0.99999406        0.00000000        0.36859702  O
       atom_frac         0.30555608        0.25000008        0.42576699  O
       atom_frac         0.49999703        0.00000000        0.42576802  Ti
       atom_frac         0.99999695        0.25000008        0.42576802  Ti
       atom_frac         0.69443905        0.25000008        0.42576901  O
       atom_frac         0.00000107        0.00000000        0.48293898  O
       atom_frac         0.49999094        0.00000000        0.51561299  O
       atom_frac         0.80555295        0.25000008        0.57278301  O
       atom_frac         0.99999497        0.00000000        0.57278400  Ti
       atom_frac         0.49999505        0.25000008        0.57278400  Ti
       atom_frac         0.19443593        0.25000008        0.57278601  O
       atom_frac         0.49999794        0.00000000        0.62995500  O
       atom_frac         0.99999406        0.50000000        0.36859702  O
       atom_frac         0.30555608        0.75000008        0.42576699  O
       atom_frac         0.49999703        0.50000000        0.42576802  Ti
       atom_frac         0.99999695        0.75000008        0.42576802  Ti
       atom_frac         0.69443905        0.75000008        0.42576901  O
       atom_frac         0.00000107        0.50000000        0.48293898  O
       atom_frac         0.49999094        0.50000000        0.51561299  O
       atom_frac         0.80555295        0.75000008        0.57278301  O
       atom_frac         0.99999497        0.50000000        0.57278400  Ti
       atom_frac         0.49999505        0.75000008        0.57278400  Ti
       atom_frac         0.19443593        0.75000008        0.57278601  O
       atom_frac         0.49999794        0.50000000        0.62995500  O
       atom_frac         0.49999794        0.50000000        0.67473288  H
       atom_frac         0.49999794        0.00000000        0.67473288  H
       atom_frac         0.99999406        0.00000000        0.32381914  H
       atom_frac         0.99999406        0.50000000        0.32381914  H
       atom_frac         0.99999406        0.50000000        0.66233975  O
       atom_frac         0.99999406        0.00000000        0.66233975  O
       atom_frac         0.99999406        0.50000000        0.70711763  H
       atom_frac         0.99999406        0.00000000        0.70711763  H
       atom_frac         0.49999794        0.50000000        0.33621227  O
       atom_frac         0.49999794        0.00000000        0.33621227  O
       atom_frac         0.49999794        0.50000000        0.29143439  H
       atom_frac         0.49999794        0.00000000        0.29143439  H

  Slab Identifier: This is Z-oriented slab and maximum thickness of the vacuum is: 13.049 Angstrom.
 
  Finished reading input file 'geometry.in'.
 

 
  Consistency checks for stacksize environment parameter are next.
 
  | Maximum stacksize for task 0: unlimited
  | Maximum stacksize for task 1: unlimited
  | Maximum stacksize for task 2: unlimited
  | Maximum stacksize for task 3: unlimited
  | Maximum stacksize for task 4: unlimited
  | Maximum stacksize for task 5: unlimited
  | Maximum stacksize for task 6: unlimited
  | Maximum stacksize for task 7: unlimited
  | Maximum stacksize for task 8: unlimited
  | Maximum stacksize for task 9: unlimited
  | Maximum stacksize for task 10: unlimited
  | Maximum stacksize for task 11: unlimited
  | Maximum stacksize for task 12: unlimited
  | Maximum stacksize for task 13: unlimited
  | Maximum stacksize for task 14: unlimited
  | Maximum stacksize for task 15: unlimited
  | Maximum stacksize for task 16: unlimited
  | Maximum stacksize for task 17: unlimited
  | Maximum stacksize for task 18: unlimited
  | Maximum stacksize for task 19: unlimited
  | Maximum stacksize for task 20: unlimited
  | Maximum stacksize for task 21: unlimited
  | Maximum stacksize for task 22: unlimited
  | Maximum stacksize for task 23: unlimited
  | Maximum stacksize for task 24: unlimited
  | Maximum stacksize for task 25: unlimited
  | Maximum stacksize for task 26: unlimited
  | Maximum stacksize for task 27: unlimited
  | Maximum stacksize for task 28: unlimited
  | Maximum stacksize for task 29: unlimited
  | Maximum stacksize for task 30: unlimited
  | Maximum stacksize for task 31: unlimited
  | Current stacksize for task 0: unlimited
  | Current stacksize for task 1: unlimited
  | Current stacksize for task 2: unlimited
  | Current stacksize for task 3: unlimited
  | Current stacksize for task 4: unlimited
  | Current stacksize for task 5: unlimited
  | Current stacksize for task 6: unlimited
  | Current stacksize for task 7: unlimited
  | Current stacksize for task 8: unlimited
  | Current stacksize for task 9: unlimited
  | Current stacksize for task 10: unlimited
  | Current stacksize for task 11: unlimited
  | Current stacksize for task 12: unlimited
  | Current stacksize for task 13: unlimited
  | Current stacksize for task 14: unlimited
  | Current stacksize for task 15: unlimited
  | Current stacksize for task 16: unlimited
  | Current stacksize for task 17: unlimited
  | Current stacksize for task 18: unlimited
  | Current stacksize for task 19: unlimited
  | Current stacksize for task 20: unlimited
  | Current stacksize for task 21: unlimited
  | Current stacksize for task 22: unlimited
  | Current stacksize for task 23: unlimited
  | Current stacksize for task 24: unlimited
  | Current stacksize for task 25: unlimited
  | Current stacksize for task 26: unlimited
  | Current stacksize for task 27: unlimited
  | Current stacksize for task 28: unlimited
  | Current stacksize for task 29: unlimited
  | Current stacksize for task 30: unlimited
  | Current stacksize for task 31: unlimited
 
  Consistency checks for the contents of control.in are next.
 
  MPI_IN_PLACE appears to work with this MPI implementation.
  | Keeping use_mpi_in_place .true. (see manual).
  Target number of points in a grid batch is not set. Defaulting to  100
  Method for grid partitioning is not set. Defaulting to parallel hash+maxmin partitioning.
  Batch size limit is not set. Defaulting to    200
  By default, will store active basis functions for each batch.
  If in need of memory, prune_basis_once .false. can be used to disable this option.
  communication_type for Hartree potential was not specified.
  Defaulting to calc_hartree .
  Defaulting to Pulay charge density mixer.
  Pulay mixer: Number of relevant iterations not set.
  Defaulting to    8 iterations.
  Pulay mixer: Number of initial linear mixing iterations not set.
  Defaulting to    0 iterations.
  Work space size for distributed Hartree potential not set.
  Defaulting to   0.200000E+03 MB.
  Mixing parameter for charge density mixing has not been set.
  Using default: charge_mix_param =     0.0500.
  The mixing parameter will be adjusted in iteration number     2 of each s.c.f. cycle (i.e., each geometry step).
  Algorithm-dependent basis array size parameters:
  | n_max_pulay                         :        8
  Maximum number of self-consistency iterations not provided.
  Presetting  1000 iterations.
  Presetting      1001 iterations before the initial mixing cycle
  is restarted anyway using the sc_init_iter criterion / keyword.
  Presetting a factor      1.000 between actual scf density residual
  and density convergence criterion sc_accuracy_rho below which sc_init_iter
  takes no effect.
 * No s.c.f. convergence criteria (sc_accuracy_*) were provided in control.in.
 * The run will proceed with a reasonable default guess, but please check whether.
 * the s.c.f. cycles seem to take too much or too little time.
  Calculation of forces was not defined in control.in. No forces will be calculated.
  Geometry relaxation not requested: no relaxation will be performed.
 * Notice: The s.c.f. convergence criterion sc_accuracy_rho was not provided.
 * We used to stop in this case, and ask the user to provide reasonable
 * scf convergence criteria. However, this led some users to employ criteria
 * that led to extremely long run times, e.g., for simple relaxation.
 * We now preset a default value for sc_accuracy_rho if it is not set.
 * You may still wish to check if this setting is too tight or too loose for your needs.
 * Based on n_atoms and forces and force-correction status, FHI-aims chose sc_accuracy_rho =  0.244949E-05 .
  No accuracy limit for integral partition fn. given. Defaulting to  0.1000E-14.
  No threshold value for u(r) in integrations given. Defaulting to  0.1000E-05.
  No occupation type (smearing scheme) given. Defaulting to Gaussian broadening, width =  0.1000E-01 eV.
  The width will be adjusted in iteration number     2 of each s.c.f. cycle (i.e., each geometry step).
  No accuracy for occupation numbers given. Defaulting to  0.1000E-12.
  No threshold value for occupation numbers given. Defaulting to  0.0000E+00.
  No accuracy for fermi level given. Defaulting to  0.1000E-19.
  Maximum # of iterations to find E_F not set. Defaulting to  200.
  Preferred method for the eigenvalue solver ('KS_method') not specified in 'control.in'.
  Defaulting to serial version, LAPACK (via ELSI), since more k-points than CPUs available.
  Will not use alltoall communication since running on < 1024 CPUs.
  Threshold for basis singularities not set.
  Default threshold for basis singularities:  0.1000E-04
  partition_type (choice of integration weights) for integrals was not specified.
  | Using a version of the partition function of Stratmann and coworkers ('stratmann_sparse').
  | At each grid point, the set of atoms used to build the partition table is smoothly restricted to
  | only those atoms whose free-atom density would be non-zero at that grid point.
  Partitioning for Hartree potential was not defined. Using partition_type for integrals.
  | Adjusted default value of keyword multip_moments_threshold to:       0.10000000E-11
  | This value may affect high angular momentum components of the Hartree potential in periodic systems.
  Spin handling was not defined in control.in. Defaulting to unpolarized case.
  Angular momentum expansion for Kerker preconditioner not set explicitly.
  | Using default value of   0
  No explicit requirement for turning off preconditioner.
  | By default, it will be turned off when the charge convergence reaches
  | sc_accuracy_rho  =   0.244949E-05
  No special mixing parameter while Kerker preconditioner is on.
  Using default: charge_mix_param =     0.0500.
  No q(lm)/r^(l+1) cutoff set for long-range Hartree potential.
  | Using default value of  0.100000E-09 .
  | Verify using the multipole_threshold keyword.
  Defaulting to new monopole extrapolation.
  Density update method: automatic selection selected.
  Using density matrix based charge density update.
  Using density matrix based charge density update.
  Using packed matrix style: index .
  Defaulting to use time-reversal symmetry for k-point grid.
  Charge integration errors on the 3D integration grid will be compensated
  by explicit normalization and distribution of residual charges.
  Use the "compensate_multipole_errors" flag to change this behaviour.
  Set 'collect_eigenvectors' to be '.true.' for all serial calculations. This is mandatory.
  Set 'collect_eigenvectors' to be '.true.' for KS_method lapack_fast and serial.
  Found potential conflicts with setting 'use_local_index' for this calculation. Will not set it.
 
  Consistency checks for the contents of geometry.in are next.
 

  Range separation radius for Ewald summation (hartree_convergence_parameter):      4.16785308 bohr.
  Number of empty states per atom not set in control.in - providing a guess from actual geometry.
  | Total number of empty states used during s.c.f. cycle:      116
  If you use a very high smearing, use empty_states (per atom!) in control.in to increase this value.

  Structure-dependent array size parameters: 
  | Maximum number of distinct radial functions  :       20
  | Maximum number of basis functions            :      568
  | Number of Kohn-Sham states (occupied + empty):      288
------------------------------------------------------------
  After read_input_data [GB]:   1028.26

  Performing system and environment tests:
  *** Environment variable OMP_NUM_THREADS is not set
  *** For performance reasons you might want to set it to 1
  | Checking for ScaLAPACK...
  | Testing pdtran()...
  | All pdtran() tests passed.
  After prepare_system [GB]:   1028.10

------------------------------------------------------------
          Preparing all fixed parts of the calculation.
------------------------------------------------------------
  Determining machine precision:
    2.225073858507201E-308
  Setting up grids for atomic and cluster calculations.

  Creating wave function, potential, and density for free atoms.
  Runtime choices for atomic solver:
  | atomic solver xc        : PBE
  | compute density gradient: 1
  | compute kinetic density : F

  Species: H

  List of occupied orbitals and eigenvalues:
    n    l              occ      energy [Ha]    energy [eV]
    1    0           1.0000        -0.237593        -6.4652


  Species: O

  List of occupied orbitals and eigenvalues:
    n    l              occ      energy [Ha]    energy [eV]
    1    0           2.0000       -18.926989      -515.0296
    2    0           2.0000        -0.880247       -23.9527
    2    1           4.0000        -0.331514        -9.0210


  Species: Ti

  List of occupied orbitals and eigenvalues:
    n    l              occ      energy [Ha]    energy [eV]
    1    0           2.0000      -179.959082     -4896.9358
    2    0           2.0000       -19.727662      -536.8170
    3    0           2.0000        -2.283029       -62.1244
    4    0           2.0000        -0.148384        -4.0377
    2    1           6.0000       -16.317278      -444.0157
    3    1           6.0000        -1.409348       -38.3503
    3    2           2.0000        -0.139340        -3.7916


  Adding cutoff potential to free-atom effective potential.
  Creating fixed part of basis set: Ionic, confined, hydrogenic.
 
  H                    hydrogenic:
 
  List of hydrogenic basis orbitals: 
    n    l      effective z      eigenvalue [eV]  inner max. [A]     outer max. [A]     outer radius [A]   
    2    0         2.100000       -14.9728           0.193243           1.317208           4.583499
    2    1         3.500000       -41.6669           0.602369           0.602369           3.723403
 
 
  O                    hydrogenic:
 
  List of hydrogenic basis orbitals: 
    n    l      effective z      eigenvalue [eV]  inner max. [A]     outer max. [A]     outer radius [A]   
    2    1         1.800000       -10.9749           1.164242           1.164242           4.578029
    3    2         7.600000       -87.3180           0.624125           0.624125           3.251020
    3    0         6.400000       -61.9207           0.061167           1.081902           4.001998
 
 
  Ti                   ion:

  List of free ionic orbitals and eigenvalues:
    n    l      energy [Ha]    energy [eV]
    1    0      -180.819616     -4920.3521
    2    0       -20.608761      -560.7929
    3    0        -3.115729       -84.7833
    4    0        -0.697188       -18.9715
    2    1       -17.196209      -467.9327
    3    1        -2.231296       -60.7167
    3    2        -0.911363       -24.7995


  List of ionic basis orbitals and eigenvalues:
    n    l      energy [Ha]    energy [eV]    outer radius [A]
    4    1        -0.517739       -14.0884       4.592117
    4    0        -0.696824       -18.9615       4.536321

 
  Ti                   hydrogenic:
 
  List of hydrogenic basis orbitals: 
    n    l      effective z      eigenvalue [eV]  inner max. [A]     outer max. [A]     outer radius [A]   
    4    3         8.000000       -54.4222           1.059019           1.059019           4.267343
    3    2         2.700000       -10.7798           1.726925           1.726925           4.592117
 
  Creating atomic-like basis functions for current effective potential.

  Species H                   :

  List of atomic basis orbitals and eigenvalues:
    n    l      energy [Ha]    energy [eV]    outer radius [A]
    1    0        -0.237593        -6.4652       4.527807


  Species O                   :

  List of atomic basis orbitals and eigenvalues:
    n    l      energy [Ha]    energy [eV]    outer radius [A]
    1    0       -18.926989      -515.0296       1.415765
    2    0        -0.880247       -23.9527       4.413171
    2    1        -0.331514        -9.0210       4.522403


  Species Ti                  :

  List of atomic basis orbitals and eigenvalues:
    n    l      energy [Ha]    energy [eV]    outer radius [A]
    1    0      -179.959082     -4896.9358       0.490254
    2    0       -19.727662      -536.8170       1.491292
    3    0        -2.283029       -62.1244       4.014314
    4    0        -0.148384        -4.0377       4.592117
    2    1       -16.317278      -444.0157       1.585290
    3    1        -1.409348       -38.3503       4.267343
    3    2        -0.139340        -3.7916       4.536321

  Assembling full basis from fixed parts.
  | Species H :   atomic orbital   1 s accepted.
  | Species H :    hydro orbital   2 s accepted.
  | Species H :    hydro orbital   2 p accepted.
  | Species O :   atomic orbital   1 s accepted.
  | Species O :    hydro orbital   3 s accepted.
  | Species O :   atomic orbital   2 s accepted.
  | Species O :   atomic orbital   2 p accepted.
  | Species O :    hydro orbital   2 p accepted.
  | Species O :    hydro orbital   3 d accepted.
  | Species Ti :   atomic orbital   1 s accepted.
  | Species Ti :   atomic orbital   2 s accepted.
  | Species Ti :   atomic orbital   3 s accepted.
  | Species Ti :    ionic orbital   4 s accepted.
  | Species Ti :   atomic orbital   4 s accepted.
  | Species Ti :   atomic orbital   2 p accepted.
  | Species Ti :   atomic orbital   3 p accepted.
  | Species Ti :    ionic orbital   4 p accepted.
  | Species Ti :   atomic orbital   3 d accepted.
  | Species Ti :    hydro orbital   3 d accepted.
  | Species Ti :    hydro orbital   4 f accepted.
 
  Basis size parameters after reduction:
  | Total number of radial functions:       20
  | Total number of basis functions :      568
 
  Per-task memory consumption for arrays in subroutine allocate_ext:
  |           5.326672MB.
  Testing on-site integration grid accuracy.
  |  Species  Function  <phi|h_atom|phi> (log., in eV)  <phi|h_atom|phi> (rad., in eV)
           1        1                 -6.4664147733                 -6.4652229287
           1        2                 13.7099062243                 13.7158503352
           1        3                 25.2661739479                 25.2663166526
           2        4               -515.0295626295               -515.0294562869
           2        5                 15.1698434419                 15.1699322205
           2        6                -21.6038822678                -21.6039118108
           2        7                 -9.0211123393                 -9.0212703513
           2        8                  8.3047696391                  8.2854840999
           2        9                 45.8428042125                 45.8427461223
           3       10              -4896.9357674450              -4896.9322838106
           3       11               -536.8170048508               -536.8169722776
           3       12                -62.1243896260                -62.1243889401
           3       13                 -3.2653235630                 -3.2692838824
           3       14                  6.7987747276                  6.5460721871 ***
           3       15               -444.0157161949               -444.0157165643
           3       16                -38.3503235548                -38.3503234985
           3       17                  0.2923930877                  0.2745948114
           3       18                 -3.7933400649                 -3.7959244171
           3       19                  6.3288803616                  6.2510614935 ***
           3       20                 27.8451455747                 27.8452636415
 * Note: Onsite integrals marked "***" above are less accurate than
 * onsite_accuracy_threshold =    0.03000 eV. Usually, this is harmless.
 * When in doubt, tighten the "radial" and/or "radial_multiplier" flags to check.

  Preparing densities etc. for the partition functions (integrals / Hartree potential).

  Preparations completed.
  max(cpu_time)          :      0.268 s.
  Wall clock time (cpu1) :      0.265 s.
------------------------------------------------------------
  After prepare_scf [GB]:   1026.53

  Initializing index lists of integration centers etc. from given atomic structure:
  Mapping all atomic coordinates to central unit cell.

  Initializing the k-points
  Using symmetry for reducing the k-points
  | k-points reduced from:       64 to       34
  | Number of k-points                             :        34
  The eigenvectors in the calculations are COMPLEX.
  | K-points in task   0:         1
  | K-points in task   1:         2
  | K-points in task   2:         2
  | K-points in task   3:         1
  | K-points in task   4:         1
  | K-points in task   5:         1
  | K-points in task   6:         1
  | K-points in task   7:         1
  | K-points in task   8:         1
  | K-points in task   9:         1
  | K-points in task  10:         1
  | K-points in task  11:         1
  | K-points in task  12:         1
  | K-points in task  13:         1
  | K-points in task  14:         1
  | K-points in task  15:         1
  | K-points in task  16:         1
  | K-points in task  17:         1
  | K-points in task  18:         1
  | K-points in task  19:         1
  | K-points in task  20:         1
  | K-points in task  21:         1
  | K-points in task  22:         1
  | K-points in task  23:         1
  | K-points in task  24:         1
  | K-points in task  25:         1
  | K-points in task  26:         1
  | K-points in task  27:         1
  | K-points in task  28:         1
  | K-points in task  29:         1
  | K-points in task  30:         1
  | K-points in task  31:         1
  | Number of basis functions in the Hamiltonian integrals :      5597
  | Number of basis functions in a single unit cell        :       568
  | Number of centers in hartree potential         :      1799
  | Number of centers in hartree multipole         :      1002
  | Number of centers in electron density summation:       800
  | Number of centers in basis integrals           :       839
  | Number of centers in integrals                 :       436
  | Number of centers in hamiltonian               :       802
  | Consuming         32 KiB for k_phase.
  | Number of super-cells (origin) [n_cells]                     :         315
  | Number of super-cells (after PM_index) [n_cells]             :          62
  | Number of super-cells in hamiltonian [n_cells_in_hamiltonian]:          62
  | Size of matrix packed + index [n_hamiltonian_matrix_size] :      753613
  After initialize_bc_dependent_lists [GB]:   1026.53

------------------------------------------------------------
          Begin self-consistency loop: Initialization.

          Date     :  20241208, Time     :  133212.369
------------------------------------------------------------
  Available memory per node after initialize_hartree_non_periodic_ewald [GB]:   1026.53
  | Estimated reciprocal-space cutoff momentum G_max:         2.23234583 bohr^-1 .
  | Reciprocal lattice points for long-range Hartree potential:    1094
  Available memory per node after initialize_recip_hartree_potential [GB]:   1026.53
  Available memory per node after initialize_scalapack [GB]:   1026.53
  Available memory per node after aims_elsi_init_scf [GB]:   1026.53
  Available memory per node after initialize_fixed_grids [GB]:   1026.53
  Partitioning the integration grid into batches with parallel hashing+maxmin method.
  | Number of batches:     2394
  | Maximal batch size:     199
  | Minimal batch size:      31
  | Average batch size:      90.647
  | Standard deviation of batch sizes:      39.983

  Integration load balanced across    32 MPI tasks.
  Work distribution over tasks is as follows:
  Task     0 has       6806 integration points.
  Task     1 has       6755 integration points.
  Task     2 has       6769 integration points.
  Task     3 has       6798 integration points.
  Task     4 has       6782 integration points.
  Task     5 has       6774 integration points.
  Task     6 has       6788 integration points.
  Task     7 has       6819 integration points.
  Task     8 has       6783 integration points.
  Task     9 has       6813 integration points.
  Task    10 has       6754 integration points.
  Task    11 has       6775 integration points.
  Task    12 has       6769 integration points.
  Task    13 has       6770 integration points.
  Task    14 has       6778 integration points.
  Task    15 has       6789 integration points.
  Task    16 has       6794 integration points.
  Task    17 has       6763 integration points.
  Task    18 has       6758 integration points.
  Task    19 has       6813 integration points.
  Task    20 has       6756 integration points.
  Task    21 has       6803 integration points.
  Task    22 has       6800 integration points.
  Task    23 has       6777 integration points.
  Task    24 has       6775 integration points.
  Task    25 has       6753 integration points.
  Task    26 has       6781 integration points.
  Task    27 has       6799 integration points.
  Task    28 has       6792 integration points.
  Task    29 has       6774 integration points.
  Task    30 has       6786 integration points.
  Task    31 has       6762 integration points.
  Available memory per node after partition_grid [GB]:   1026.48
  Initializing partition tables, free-atom densities, potentials, etc. across the integration grid (initialize_grid_storage).
  | initialize_grid_storage: Actual outermost partition radius vs. multipole_radius_free
  | (-- VB: in principle, multipole_radius_free should be larger, hence this output)
  | Species        1: Confinement radius =              4.999999999999999 AA, multipole_radius_free =              5.054417573612229 AA.
  | Species        1: outer_partition_radius set to              5.054417573612229 AA .
  | Species        2: Confinement radius =              4.999999999999999 AA, multipole_radius_free =              5.048384829883283 AA.
  | Species        2: outer_partition_radius set to              5.048384829883283 AA .
  | Species        3: Confinement radius =              4.999999999999999 AA, multipole_radius_free =              5.002391649902235 AA.
  | Species        3: outer_partition_radius set to              5.002391649902235 AA .
  | The sparse table of interatomic distances needs       1683.46 kbyte instead of      5631.37 kbyte of memory.
  | Net number of integration points:   217008
  | of which are non-zero points    :   178998
  | Numerical average free-atom electrostatic potential    :     -5.94051546 eV
  Available memory per node after initialize_grid_storage_p1 [GB]:   1026.49
  Renormalizing the initial density to the exact electron count on the 3D integration grid.
  | Initial density: Formal number of electrons (from input files) :     344.0000000000
  | Integrated number of electrons on 3D grid     :     343.9993124482
  | Charge integration error                      :      -0.0006875518
  | Normalization factor for density and gradient :       1.0000019987
  Renormalizing the free-atom superposition density to the exact electron count on the 3D integration grid.
  | Formal number of electrons (from input files) :     344.0000000000
  | Integrated number of electrons on 3D grid     :     343.9993124482
  | Charge integration error                      :      -0.0006875518
  | Normalization factor for density and gradient :       1.0000019987
  Obtaining max. number of non-zero basis functions in each batch (get_n_compute_maxes).
  | Maximal number of non-zero basis functions:      762 in task     0
  | Maximal number of non-zero basis functions:      720 in task     1
  | Maximal number of non-zero basis functions:      755 in task     2
  | Maximal number of non-zero basis functions:      740 in task     3
  | Maximal number of non-zero basis functions:      744 in task     4
  | Maximal number of non-zero basis functions:      758 in task     5
  | Maximal number of non-zero basis functions:      745 in task     6
  | Maximal number of non-zero basis functions:      740 in task     7
  | Maximal number of non-zero basis functions:      734 in task     8
  | Maximal number of non-zero basis functions:      715 in task     9
  | Maximal number of non-zero basis functions:      736 in task    10
  | Maximal number of non-zero basis functions:      754 in task    11
  | Maximal number of non-zero basis functions:      737 in task    12
  | Maximal number of non-zero basis functions:      738 in task    13
  | Maximal number of non-zero basis functions:      722 in task    14
  | Maximal number of non-zero basis functions:      721 in task    15
  | Maximal number of non-zero basis functions:      758 in task    16
  | Maximal number of non-zero basis functions:      736 in task    17
  | Maximal number of non-zero basis functions:      744 in task    18
  | Maximal number of non-zero basis functions:      738 in task    19
  | Maximal number of non-zero basis functions:      754 in task    20
  | Maximal number of non-zero basis functions:      757 in task    21
  | Maximal number of non-zero basis functions:      761 in task    22
  | Maximal number of non-zero basis functions:      728 in task    23
  | Maximal number of non-zero basis functions:      728 in task    24
  | Maximal number of non-zero basis functions:      758 in task    25
  | Maximal number of non-zero basis functions:      761 in task    26
  | Maximal number of non-zero basis functions:      762 in task    27
  | Maximal number of non-zero basis functions:      739 in task    28
  | Maximal number of non-zero basis functions:      745 in task    29
  | Maximal number of non-zero basis functions:      757 in task    30
  | Maximal number of non-zero basis functions:      726 in task    31
  Available memory per node after get_n_compute_maxes_p1 [GB]:   1026.48
  Allocating        2.496 MB for KS_eigenvector_complex
  Available memory per node after allocate_matrices [GB]:   1026.47
  Available memory per node after init_comm_sparse_local_matrix_scalapack [GB]:   1026.47
  Integrating Hamiltonian matrix: batch-based integration.
  Time summed over all CPUs for integration: real work       29.351 s, elapsed       40.395 s => Consider using load balancing!
  Available memory per node after integrate hamiltonian matrix [GB]:   1026.26
  Integrating overlap matrix.
  Time summed over all CPUs for integration: real work        8.904 s, elapsed       12.396 s
  Available memory per node after integrate ovlp matrix [GB]:   1025.86
  Available memory per node after ASI_callbacks invoke [GB]:   1025.86
  Available memory per node after save_overlap_scalapack [GB]:   1025.86

  Updating Kohn-Sham eigenvalues and eigenvectors using ELSI and the (modified) LAPACK eigensolver.
  Singularity check in k-point 32, task 0 (analysis for other k-points/tasks may follow below):
  Overlap matrix is not singular
  | Lowest and highest eigenvalues :  0.1046E-02,  0.7768E+01
  Finished singularity check of overlap matrix
  | Time :     0.119 s
  Starting LAPACK eigensolver
  Finished Cholesky decomposition
  | Time :     0.021 s
  Finished transformation to standard eigenproblem
  | Time :     0.029 s
  Finished solving standard eigenproblem
  | Time :     0.134 s
  Finished back-transformation of eigenvectors
  | Time :     0.011 s

  Obtaining occupation numbers and electronic chemical potential using ELSI.
  | Note that, for insulating systems, the printed 'chemical potential' value is not uniquely defined.
  | It can be anywhere in the energy gap, as long as it correctly separates occupied and unoccupied states.
  | In systems with a gap, the physically relevant chemical potential is the VBM or HOMO.

  | Chemical potential (Fermi level):    -6.21214948 eV
  Available memory per node after advance_KS_solution [GB]:   1025.23
  Writing Kohn-Sham eigenvalues.
  K-point:       1 at    0.000000    0.000000    0.000000 (in units of recip. lattice)

  State    Occupation    Eigenvalue [Ha]    Eigenvalue [eV]
      1       2.00000        -179.962540        -4897.02988
      2       2.00000        -179.962540        -4897.02988
      3       2.00000        -179.962540        -4897.02988
      4       2.00000        -179.962540        -4897.02988
      5       2.00000        -179.962419        -4897.02657
      6       2.00000        -179.962419        -4897.02657
      7       2.00000        -179.962419        -4897.02657
      8       2.00000        -179.962419        -4897.02657
      9       2.00000         -19.738098         -537.10099
     10       2.00000         -19.738098         -537.10099
     11       2.00000         -19.738098         -537.10098
     12       2.00000         -19.738098         -537.10098
     13       2.00000         -19.737968         -537.09744
     14       2.00000         -19.737968         -537.09744
     15       2.00000         -19.737968         -537.09744
     16       2.00000         -19.737968         -537.09744
     17       2.00000         -19.048963         -518.34866
     18       2.00000         -19.048963         -518.34866
     19       2.00000         -19.048963         -518.34865
     20       2.00000         -19.048963         -518.34865
     21       2.00000         -19.034649         -517.95914
     22       2.00000         -19.034649         -517.95914
     23       2.00000         -19.034648         -517.95914
     24       2.00000         -19.034648         -517.95914
     25       2.00000         -19.034616         -517.95825
     26       2.00000         -19.034616         -517.95825
     27       2.00000         -19.034616         -517.95825
     28       2.00000         -19.034616         -517.95825
     29       2.00000         -19.034616         -517.95824
     30       2.00000         -19.034616         -517.95824
     31       2.00000         -19.034616         -517.95824
     32       2.00000         -19.034616         -517.95824
     33       2.00000         -19.007289         -517.21465
     34       2.00000         -19.007289         -517.21465
     35       2.00000         -19.007289         -517.21465
     36       2.00000         -19.007289         -517.21465
     37       2.00000         -16.328271         -444.31485
     38       2.00000         -16.328271         -444.31485
     39       2.00000         -16.328271         -444.31485
     40       2.00000         -16.328271         -444.31485
     41       2.00000         -16.328140         -444.31130
     42       2.00000         -16.328140         -444.31130
     43       2.00000         -16.328140         -444.31130
     44       2.00000         -16.328140         -444.31130
     45       2.00000         -16.327951         -444.30616
     46       2.00000         -16.327951         -444.30616
     47       2.00000         -16.327951         -444.30616
     48       2.00000         -16.327951         -444.30616
     49       2.00000         -16.327945         -444.30598
     50       2.00000         -16.327945         -444.30598
     51       2.00000         -16.327945         -444.30598
     52       2.00000         -16.327945         -444.30598
     53       2.00000         -16.327831         -444.30288
     54       2.00000         -16.327831         -444.30288
     55       2.00000         -16.327831         -444.30288
     56       2.00000         -16.327831         -444.30288
     57       2.00000         -16.327809         -444.30230
     58       2.00000         -16.327809         -444.30230
     59       2.00000         -16.327809         -444.30230
     60       2.00000         -16.327809         -444.30230
     61       2.00000          -2.309571          -62.84662
     62       2.00000          -2.309412          -62.84230
     63       2.00000          -2.309112          -62.83415
     64       2.00000          -2.308953          -62.82980
     65       2.00000          -2.307596          -62.79289
     66       2.00000          -2.307594          -62.79282
     67       2.00000          -2.307370          -62.78672
     68       2.00000          -2.307367          -62.78665
     69       2.00000          -1.464751          -39.85789
     70       2.00000          -1.464714          -39.85688
     71       2.00000          -1.464098          -39.84012
     72       2.00000          -1.464059          -39.83908
     73       2.00000          -1.450229          -39.46274
     74       2.00000          -1.449914          -39.45416
     75       2.00000          -1.448196          -39.40743
     76       2.00000          -1.447734          -39.39484
     77       2.00000          -1.441926          -39.23679
     78       2.00000          -1.441605          -39.22808
     79       2.00000          -1.441590          -39.22766
     80       2.00000          -1.441569          -39.22708
     81       2.00000          -1.441540          -39.22630
     82       2.00000          -1.441268          -39.21889
     83       2.00000          -1.441066          -39.21340
     84       2.00000          -1.440781          -39.20565
     85       2.00000          -1.440718          -39.20394
     86       2.00000          -1.440713          -39.20379
     87       2.00000          -1.439891          -39.18144
     88       2.00000          -1.439851          -39.18035
     89       2.00000          -1.439838          -39.17998
     90       2.00000          -1.439798          -39.17891
     91       2.00000          -1.439778          -39.17835
     92       2.00000          -1.439600          -39.17352
     93       2.00000          -1.080579          -29.40404
     94       2.00000          -1.078493          -29.34728
     95       2.00000          -1.069036          -29.08995
     96       2.00000          -1.069000          -29.08896
     97       2.00000          -1.052341          -28.63565
     98       2.00000          -1.049542          -28.55949
     99       2.00000          -1.028842          -27.99623
    100       2.00000          -1.027242          -27.95268
    101       2.00000          -1.026634          -27.93613
    102       2.00000          -1.026119          -27.92213
    103       2.00000          -1.025146          -27.89566
    104       2.00000          -1.023357          -27.84695
    105       2.00000          -1.021284          -27.79056
    106       2.00000          -1.020242          -27.76221
    107       2.00000          -1.016439          -27.65871
    108       2.00000          -1.016260          -27.65384
    109       2.00000          -1.015403          -27.63052
    110       2.00000          -1.014930          -27.61764
    111       2.00000          -1.007126          -27.40528
    112       2.00000          -1.005640          -27.36486
    113       2.00000          -0.632700          -17.21664
    114       2.00000          -0.631935          -17.19583
    115       2.00000          -0.612985          -16.68018
    116       2.00000          -0.612922          -16.67846
    117       2.00000          -0.582362          -15.84686
    118       2.00000          -0.581457          -15.82225
    119       2.00000          -0.574216          -15.62520
    120       2.00000          -0.573104          -15.59495
    121       2.00000          -0.571425          -15.54927
    122       2.00000          -0.570948          -15.53627
    123       2.00000          -0.547513          -14.89860
    124       2.00000          -0.545339          -14.83942
    125       2.00000          -0.538332          -14.64876
    126       2.00000          -0.534211          -14.53662
    127       2.00000          -0.532965          -14.50272
    128       2.00000          -0.531647          -14.46685
    129       2.00000          -0.529720          -14.41441
    130       2.00000          -0.523465          -14.24422
    131       2.00000          -0.523461          -14.24410
    132       2.00000          -0.518067          -14.09731
    133       2.00000          -0.517027          -14.06903
    134       2.00000          -0.516987          -14.06794
    135       2.00000          -0.516183          -14.04605
    136       2.00000          -0.515719          -14.03342
    137       2.00000          -0.514758          -14.00728
    138       2.00000          -0.514178          -13.99149
    139       2.00000          -0.507063          -13.79788
    140       2.00000          -0.504516          -13.72859
    141       2.00000          -0.501025          -13.63360
    142       2.00000          -0.496329          -13.50579
    143       2.00000          -0.495850          -13.49276
    144       2.00000          -0.489623          -13.32331
    145       2.00000          -0.489252          -13.31323
    146       2.00000          -0.482227          -13.12206
    147       2.00000          -0.479942          -13.05989
    148       2.00000          -0.472292          -12.85172
    149       2.00000          -0.467683          -12.72630
    150       2.00000          -0.467097          -12.71035
    151       2.00000          -0.466065          -12.68227
    152       2.00000          -0.463925          -12.62405
    153       2.00000          -0.463687          -12.61758
    154       2.00000          -0.456331          -12.41740
    155       2.00000          -0.454226          -12.36012
    156       2.00000          -0.453156          -12.33100
    157       2.00000          -0.453082          -12.32899
    158       2.00000          -0.452750          -12.31996
    159       2.00000          -0.451084          -12.27461
    160       2.00000          -0.449101          -12.22066
    161       2.00000          -0.446960          -12.16240
    162       2.00000          -0.443969          -12.08100
    163       2.00000          -0.436069          -11.86605
    164       2.00000          -0.435608          -11.85349
    165       2.00000          -0.426811          -11.61413
    166       2.00000          -0.425187          -11.56992
    167       2.00000          -0.418006          -11.37451
    168       2.00000          -0.415434          -11.30454
    169       2.00000          -0.415036          -11.29371
    170       2.00000          -0.409921          -11.15451
    171       2.00000          -0.399379          -10.86766
    172       2.00000          -0.399242          -10.86393
    173       0.00000          -0.194014           -5.27939
    174       0.00000          -0.192977           -5.25118
    175       0.00000          -0.189410           -5.15410
    176       0.00000          -0.187809           -5.11056
    177       0.00000          -0.170875           -4.64975
    178       0.00000          -0.170783           -4.64724
    179       0.00000          -0.162498           -4.42179
    180       0.00000          -0.159555           -4.34173
    181       0.00000          -0.156524           -4.25923
    182       0.00000          -0.156074           -4.24700
    183       0.00000          -0.156027           -4.24571
    184       0.00000          -0.153651           -4.18105
    185       0.00000          -0.152697           -4.15509
    186       0.00000          -0.146295           -3.98088
    187       0.00000          -0.145790           -3.96714
    188       0.00000          -0.145267           -3.95290
    189       0.00000          -0.144570           -3.93396
    190       0.00000          -0.138185           -3.76020
    191       0.00000          -0.135736           -3.69356
    192       0.00000          -0.133969           -3.64549
    193       0.00000          -0.133109           -3.62209
    194       0.00000          -0.131776           -3.58581
    195       0.00000          -0.124592           -3.39033
    196       0.00000          -0.112996           -3.07478
    197       0.00000          -0.111463           -3.03307
    198       0.00000          -0.102811           -2.79762
    199       0.00000          -0.088455           -2.40700
    200       0.00000          -0.078139           -2.12628
    201       0.00000          -0.077883           -2.11930
    202       0.00000          -0.077625           -2.11229
    203       0.00000          -0.067795           -1.84478
    204       0.00000          -0.064808           -1.76352
    205       0.00000          -0.060970           -1.65909
    206       0.00000          -0.058599           -1.59455
    207       0.00000          -0.051788           -1.40922
    208       0.00000          -0.051768           -1.40868
    209       0.00000          -0.051368           -1.39781
    210       0.00000          -0.050802           -1.38239
    211       0.00000          -0.050581           -1.37639
    212       0.00000          -0.050475           -1.37350
    213       0.00000          -0.041267           -1.12293
    214       0.00000          -0.041007           -1.11585
    215       0.00000          -0.025954           -0.70625
    216       0.00000          -0.004202           -0.11434
    217       0.00000           0.003191            0.08683
    218       0.00000           0.009995            0.27198
    219       0.00000           0.017389            0.47317
    220       0.00000           0.050542            1.37532
    221       0.00000           0.054126            1.47284
    222       0.00000           0.057856            1.57433
    223       0.00000           0.068419            1.86177
    224       0.00000           0.089667            2.43997
    225       0.00000           0.106453            2.89674
    226       0.00000           0.108867            2.96242
    227       0.00000           0.113166            3.07940
    228       0.00000           0.113543            3.08967
    229       0.00000           0.128738            3.50315
    230       0.00000           0.163526            4.44977
    231       0.00000           0.164595            4.47886
    232       0.00000           0.166492            4.53047
    233       0.00000           0.170173            4.63063
    234       0.00000           0.184853            5.03009
    235       0.00000           0.184989            5.03380
    236       0.00000           0.192901            5.24911
    237       0.00000           0.198765            5.40866
    238       0.00000           0.200554            5.45734
    239       0.00000           0.201846            5.49251
    240       0.00000           0.208326            5.66885
    241       0.00000           0.225638            6.13991
    242       0.00000           0.244891            6.66382
    243       0.00000           0.251806            6.85200
    244       0.00000           0.265808            7.23300
    245       0.00000           0.265861            7.23444
    246       0.00000           0.277014            7.53793
    247       0.00000           0.279237            7.59842
    248       0.00000           0.280279            7.62678
    249       0.00000           0.286998            7.80961
    250       0.00000           0.293062            7.97462
    251       0.00000           0.295489            8.04067
    252       0.00000           0.309815            8.43048
    253       0.00000           0.313734            8.53715
    254       0.00000           0.316073            8.60079
    255       0.00000           0.326706            8.89012
    256       0.00000           0.338660            9.21540
    257       0.00000           0.353220            9.61162
    258       0.00000           0.366792            9.98092
    259       0.00000           0.373164           10.15431
    260       0.00000           0.380147           10.34432
    261       0.00000           0.383370           10.43204
    262       0.00000           0.407743           11.09525
    263       0.00000           0.409785           11.15081
    264       0.00000           0.411349           11.19339
    265       0.00000           0.418594           11.39051
    266       0.00000           0.422470           11.49599
    267       0.00000           0.432749           11.77569
    268       0.00000           0.434674           11.82809
    269       0.00000           0.436241           11.87072
    270       0.00000           0.460280           12.52485
    271       0.00000           0.470495           12.80283
    272       0.00000           0.495518           13.48372
    273       0.00000           0.496636           13.51415
    274       0.00000           0.504275           13.72201
    275       0.00000           0.506653           13.78672
    276       0.00000           0.519308           14.13108
    277       0.00000           0.520286           14.15769
    278       0.00000           0.525549           14.30091
    279       0.00000           0.533926           14.52886
    280       0.00000           0.557046           15.15800
    281       0.00000           0.572460           15.57742
    282       0.00000           0.579159           15.75972
    283       0.00000           0.585888           15.94283
    284       0.00000           0.591567           16.09736
    285       0.00000           0.597804           16.26707
    286       0.00000           0.613637           16.69790
    287       0.00000           0.636084           17.30873
    288       0.00000           0.644673           17.54243

  What follows are estimated values for band gap, HOMO, LUMO, etc.
  | They are estimated on a discrete k-point grid and not necessarily exact.
  | For converged numbers, create a DOS and/or band structure plot on a denser k-grid.

  Highest occupied state (VBM) at    -10.86393494 eV (relative to internal zero)
  | Occupation number:      2.00000000
  | K-point:       1 at    0.000000    0.000000    0.000000 (in units of recip. lattice)

  Lowest unoccupied state (CBM) at    -5.27938577 eV (relative to internal zero)
  | Occupation number:      0.00000000
  | K-point:       1 at    0.000000    0.000000    0.000000 (in units of recip. lattice)

  ESTIMATED overall HOMO-LUMO gap:      5.58454917 eV between HOMO at k-point 1 and LUMO at k-point 1
  | This appears to be a direct band gap.
  The gap value is above 0.2 eV. Unless you are using a very sparse k-point grid,
  this system is most likely an insulator or a semiconductor.
  Calculating total energy contributions from superposition of free atom densities.

  Total energy components:
  | Sum of eigenvalues            :       -4947.67036448 Ha     -134632.96066704 eV
  | XC energy correction          :        -509.29413869 Ha      -13858.59863147 eV
  | XC potential correction       :         658.25977411 Ha       17912.15981426 eV
  | Free-atom electrostatic energy:       -3564.20464763 Ha      -96986.94310347 eV
  | Hartree energy correction     :           0.00000000 Ha           0.00000000 eV
  | Entropy correction            :           0.00000000 Ha           0.00000000 eV
  | ---------------------------
  | Total energy                  :       -8362.90937669 Ha     -227566.34258771 eV
  | Total energy, T -> 0          :       -8362.90937669 Ha     -227566.34258771 eV  <-- do not rely on this value for anything but (periodic) metals
  | Electronic free energy        :       -8362.90937669 Ha     -227566.34258771 eV

  Derived energy quantities:
  | Kinetic energy                :        8410.22323831 Ha      228853.81826854 eV
  | Electrostatic energy          :      -16263.83847631 Ha     -442561.56222479 eV
  | Energy correction for multipole
  | error in Hartree potential    :           0.00000000 Ha           0.00000000 eV
  | Sum of eigenvalues per atom                           :       -3739.80446297 eV
  | Total energy (T->0) per atom                          :       -6321.28729410 eV  <-- do not rely on this value for anything but (periodic) metals
  | Electronic free energy per atom                       :       -6321.28729410 eV
  Initialize hartree_potential_storage
  Max. number of atoms included in rho_multipole:           36

  End scf initialization - timings             :  max(cpu_time)    wall_clock(cpu1)
  | Time for scf. initialization                :        3.027 s           3.027 s
  | Boundary condition initialization           :        0.055 s           0.056 s
[...]
    200       0.00000          -0.052116           -1.41814
    201       0.00000          -0.041626           -1.13269
    202       0.00000          -0.033247           -0.90469
    203       0.00000          -0.031309           -0.85197
    204       0.00000          -0.026726           -0.72726
    205       0.00000          -0.023456           -0.63828
    206       0.00000          -0.021956           -0.59745
    207       0.00000          -0.015120           -0.41144
    208       0.00000          -0.014864           -0.40447
    209       0.00000          -0.007843           -0.21342
    210       0.00000          -0.001269           -0.03454
    211       0.00000           0.001256            0.03419
    212       0.00000           0.001718            0.04674
    213       0.00000           0.021529            0.58584
    214       0.00000           0.021730            0.59129
    215       0.00000           0.050397            1.37138
    216       0.00000           0.054777            1.49054
    217       0.00000           0.058607            1.59479
    218       0.00000           0.063719            1.73388
    219       0.00000           0.097144            2.64342
    220       0.00000           0.118889            3.23514
    221       0.00000           0.124432            3.38598
    222       0.00000           0.160331            4.36282
    223       0.00000           0.210948            5.74018
    224       0.00000           0.213526            5.81033
    225       0.00000           0.218726            5.95185
    226       0.00000           0.224492            6.10874
    227       0.00000           0.225659            6.14050
    228       0.00000           0.228757            6.22481
    229       0.00000           0.239098            6.50618
    230       0.00000           0.276827            7.53284
    231       0.00000           0.278201            7.57024
    232       0.00000           0.282739            7.69371
    233       0.00000           0.283515            7.71482
    234       0.00000           0.286352            7.79203
    235       0.00000           0.293048            7.97424
    236       0.00000           0.308036            8.38207
    237       0.00000           0.315185            8.57663
    238       0.00000           0.315630            8.58873
    239       0.00000           0.324106            8.81938
    240       0.00000           0.340029            9.25266
    241       0.00000           0.344481            9.37379
    242       0.00000           0.344952            9.38661
    243       0.00000           0.351245            9.55787
    244       0.00000           0.356623            9.70422
    245       0.00000           0.379784           10.33445
    246       0.00000           0.379902           10.33765
    247       0.00000           0.384435           10.46102
    248       0.00000           0.393494           10.70751
    249       0.00000           0.409812           11.15157
    250       0.00000           0.412603           11.22749
    251       0.00000           0.413894           11.26264
    252       0.00000           0.421277           11.46354
    253       0.00000           0.421352           11.46558
    254       0.00000           0.431662           11.74611
    255       0.00000           0.438214           11.92442
    256       0.00000           0.439503           11.95950
    257       0.00000           0.454996           12.38106
    258       0.00000           0.467915           12.73261
    259       0.00000           0.470980           12.81602
    260       0.00000           0.473287           12.87878
    261       0.00000           0.484312           13.17879
    262       0.00000           0.496004           13.49695
    263       0.00000           0.496866           13.52042
    264       0.00000           0.497803           13.54591
    265       0.00000           0.498851           13.57444
    266       0.00000           0.503423           13.69885
    267       0.00000           0.505859           13.76512
    268       0.00000           0.512722           13.95187
    269       0.00000           0.521205           14.18270
    270       0.00000           0.545637           14.84753
    271       0.00000           0.559552           15.22619
    272       0.00000           0.581422           15.82131
    273       0.00000           0.582322           15.84580
    274       0.00000           0.582534           15.85156
    275       0.00000           0.585329           15.92761
    276       0.00000           0.590135           16.05838
    277       0.00000           0.601766           16.37489
    278       0.00000           0.616041           16.76334
    279       0.00000           0.629464           17.12860
    280       0.00000           0.666646           18.14037
    281       0.00000           0.669497           18.21795
    282       0.00000           0.682370           18.56824
    283       0.00000           0.688658           18.73933
    284       0.00000           0.695781           18.93317
    285       0.00000           0.700198           19.05336
    286       0.00000           0.708041           19.26678
    287       0.00000           0.711944           19.37299
    288       0.00000           0.728536           19.82447

  What follows are estimated values for band gap, HOMO, LUMO, etc.
  | They are estimated on a discrete k-point grid and not necessarily exact.
  | For converged numbers, create a DOS and/or band structure plot on a denser k-grid.

  Highest occupied state (VBM) at     -5.27728214 eV (relative to internal zero)
  | Occupation number:      2.00000000
  | K-point:       1 at    0.000000    0.000000    0.000000 (in units of recip. lattice)

  Lowest unoccupied state (CBM) at    -4.58800488 eV (relative to internal zero)
  | Occupation number:      0.00000000
  | K-point:       1 at    0.000000    0.000000    0.000000 (in units of recip. lattice)

  ESTIMATED overall HOMO-LUMO gap:      0.68927726 eV between HOMO at k-point 1 and LUMO at k-point 1
  | This appears to be a direct band gap.
  The gap value is above 0.2 eV. Unless you are using a very sparse k-point grid,
  this system is most likely an insulator or a semiconductor.

  Total energy components:
  | Sum of eigenvalues            :       -4894.02476686 Ha     -133173.18968344 eV
  | XC energy correction          :        -511.27487508 Ha      -13912.49721107 eV
  | XC potential correction       :         660.80183049 Ha       17981.33268784 eV
  | Free-atom electrostatic energy:       -3564.20464763 Ha      -96986.94310347 eV
  | Hartree energy correction     :         -32.76516036 Ha        -891.58537671 eV
  | Entropy correction            :          -0.00000000 Ha          -0.00000000 eV
  | ---------------------------
  | Total energy                  :       -8341.46761944 Ha     -226982.88268685 eV
  | Total energy, T -> 0          :       -8341.46761944 Ha     -226982.88268685 eV  <-- do not rely on this value for anything but (periodic) metals
  | Electronic free energy        :       -8341.46761944 Ha     -226982.88268685 eV

  Derived energy quantities:
  | Kinetic energy                :        8435.15340107 Ha      229532.20251307 eV
  | Electrostatic energy          :      -16265.34614543 Ha     -442602.58798885 eV
  | Energy correction for multipole
  | error in Hartree potential    :           0.06694715 Ha           1.82172467 eV
  | Sum of eigenvalues per atom                           :       -3699.25526898 eV
  | Total energy (T->0) per atom                          :       -6305.08007463 eV  <-- do not rely on this value for anything but (periodic) metals
  | Electronic free energy per atom                       :       -6305.08007463 eV
  End evaluation of scaled ZORA corrections.
  | Time for scaled ZORA corrections            :        1.994 s           1.993 s
------------------------------------------------------------

  Energy and forces in a compact form:
  | Total energy uncorrected      :         -0.226982882686846E+06 eV
  | Total energy corrected        :         -0.226982882686846E+06 eV  <-- do not rely on this value for anything but (periodic) metals
  | Electronic free energy        :         -0.226982882686846E+06 eV

  ------------------------------------ 
  Start decomposition of the XC Energy 
  ------------------------------------ 
  X and C from original XC functional choice 
  Hartree-Fock Energy :          0.000000000 Ha              0.000000000 eV
  X Energy            :       -497.951848044 Ha         -13549.959199609 eV
  C Energy            :        -13.323027039 Ha           -362.538011458 eV
  XC Energy w/o HF    :       -511.274875083 Ha         -13912.497211067 eV
  Total XC Energy     :       -511.274875083 Ha         -13912.497211067 eV
  ------------------------------------ 
  LDA X and C from self-consistent density 
  X Energy LDA        :       -461.545256872 Ha         -12559.285448883 eV
  C Energy LDA        :        -26.114098544 Ha           -710.600776357 eV
  ------------------------------------ 
  End decomposition of the XC Energy 
  ------------------------------------ 

------------------------------------------------------------

  ------------------------------------------------------------
                   Starting Mulliken Analysis
  ------------------------------------------------------------

  Performing Mulliken charge analysis on all atoms.
  Full analysis will be written to separate file 'Mulliken.out'.
  Summary of the per-atom charge analysis:
  |
  |  atom       electrons          charge             l=0             l=1             l=2             l=3
  |     1        8.453083       -0.453083        3.717455        4.724116        0.011512
  |     2        8.611034       -0.611034        3.847817        4.753280        0.009937
  |     3       20.806084        1.193916        6.024134       12.498891        2.137755        0.145304
  |     4       20.806839        1.193161        6.012864       12.510869        2.137597        0.145508
  |     5        8.611039       -0.611039        3.847817        4.753285        0.009937
  |     6        8.591248       -0.591248        3.844050        4.737352        0.009846
  |     7        8.591248       -0.591248        3.844050        4.737352        0.009846
  |     8        8.611039       -0.611039        3.847817        4.753286        0.009937
  |     9       20.806084        1.193916        6.024134       12.498890        2.137755        0.145304
  |    10       20.806839        1.193161        6.012864       12.510869        2.137597        0.145508
  |    11        8.611033       -0.611033        3.847817        4.753279        0.009937
  |    12        8.453082       -0.453082        3.717455        4.724115        0.011512
  |    13        8.453083       -0.453083        3.717455        4.724116        0.011512
  |    14        8.611034       -0.611034        3.847817        4.753280        0.009937
  |    15       20.806084        1.193916        6.024134       12.498891        2.137755        0.145304
  |    16       20.806839        1.193161        6.012864       12.510869        2.137597        0.145508
  |    17        8.611039       -0.611039        3.847817        4.753285        0.009937
  |    18        8.591248       -0.591248        3.844050        4.737352        0.009846
  |    19        8.591248       -0.591248        3.844050        4.737352        0.009846
  |    20        8.611039       -0.611039        3.847817        4.753286        0.009937
  |    21       20.806084        1.193916        6.024134       12.498890        2.137755        0.145304
  |    22       20.806839        1.193161        6.012864       12.510869        2.137597        0.145508
  |    23        8.611033       -0.611033        3.847817        4.753279        0.009937
  |    24        8.453082       -0.453082        3.717455        4.724115        0.011512
  |    25        0.792653        0.207347        0.709922        0.082731
  |    26        0.792653        0.207347        0.709922        0.082731
  |    27        0.792653        0.207347        0.709922        0.082731
  |    28        0.792653        0.207347        0.709922        0.082731
  |    29        8.451145       -0.451145        3.750848        4.692478        0.007819
  |    30        8.451145       -0.451145        3.750848        4.692478        0.007819
  |    31        0.876876        0.123124        0.785308        0.091569
  |    32        0.876876        0.123124        0.785308        0.091569
  |    33        8.451146       -0.451146        3.750848        4.692479        0.007819
  |    34        8.451146       -0.451146        3.750848        4.692479        0.007819
  |    35        0.876876        0.123124        0.785308        0.091569
  |    36        0.876876        0.123124        0.785308        0.091569
  |
  | Total      344.000000       -0.000000
 
  Writing Mulliken decomposition to disk ...

  Mulliken analysis                                       :  max(cpu_time)    wall_clock(cpu1)
  | Time for Mulliken analysis                            :          2.842               2.847
  | Total time for Mulliken analysis                      :          2.842               2.847
------------------------------------------------------------

------------------------------------------------------------------------------
  Final output of selected total energy values:

  The following output summarizes some interesting total energy values
  at the end of a run (AFTER all relaxation, molecular dynamics, etc.).

  | Total energy of the DFT / Hartree-Fock s.c.f. calculation      :        -226982.882686846 eV
  | Final zero-broadening corrected energy (caution - metals only) :        -226982.882686846 eV
  | For reference only, the value of 1 Hartree used in FHI-aims is :             27.211384500 eV
  | For reference only, the overall average (free atom contribution
  | + realspace contribution) of the electrostatic potential after
  | s.c.f. convergence is                                          :             -5.686255867 eV

  Before relying on these values, please be sure to understand exactly which
  total energy value is referred to by a given number. Different objects may
  all carry the same name 'total energy'. Definitions:

  Total energy of the DFT / Hartree-Fock s.c.f. calculation:
  | Note that this energy does not include ANY quantities calculated after the
  | s.c.f. cycle, in particular not ANY RPA, MP2, etc. many-body perturbation terms.
  | Scalar relativistic effects have been included in the 'scaled ZORA' approximation.

  Final zero-broadening corrected energy:
  | For metallic systems only, a broadening of the occupation numbers at the Fermi
  | level can be extrapolated back to zero broadening by an electron-gas inspired
  | formula. For all systems that are not real metals, this value can be
  | meaningless and should be avoided.

------------------------------------------------------------------------------
  Methods described in the following list of references were used in this FHI-aims run.
  If you publish the results, please make sure to cite these reference if they apply.
  FHI-aims is an academic code, and for our developers (often, Ph.D. students
  and postdocs), scientific credit in the community is essential.
  Thank you for helping us!

  For any use of FHI-aims, please cite:

    Volker Blum, Ralf Gehrke, Felix Hanke, Paula Havu, Ville Havu,
    Xinguo Ren, Karsten Reuter, and Matthias Scheffler
    'Ab initio molecular simulations with numeric atom-centered orbitals'
    Computer Physics Communications 180, 2175-2196 (2009)
    http://doi.org/10.1016/j.cpc.2009.06.022


  The provided symmetry information was generated with SPGlib:

    Atsushi Togo, Yusuke Seto, Dimitar Pashov
    SPGlib 1.7.3 obtained from http://spglib.sourceforge.net
    Licence: New BSD license
    Copyright (C) 2008 Atsushi Togo


  The ELSI infrastructure was used in your run to solve the Kohn-Sham electronic structure.
  Please check out https://wordpress.elsi-interchange.org to learn more.
  If scalability is important for your project, please acknowledge ELSI by citing:

    V. W-z. Yu, F. Corsetti, A. Garcia, W. P. Huhn, M. Jacquelin, W. Jia,
    B. Lange, L. Lin, J. Lu, W. Mi, A. Seifitokaldani, A. Vazquez-Mayagoitia,
    C. Yang, H. Yang, and V. Blum
    'ELSI: A unified software interface for Kohn-Sham electronic structure solvers'
    Computer Physics Communications 222, 267-285 (2018).
    http://doi.org/10.1016/j.cpc.2017.09.007


  For the real-space grid partitioning and parallelization used in this calculation, please cite:

    Ville Havu, Volker Blum, Paula Havu, and Matthias Scheffler,
    'Efficient O(N) integration for all-electron electronic structure calculation'
    'using numerically tabulated basis functions'
    Journal of Computational Physics 228, 8367-8379 (2009).
    http://doi.org/10.1016/j.jcp.2009.08.008

  Of course, there are many other important community references, e.g., those cited in the
  above references. Our list is limited to references that describe implementations in the
  FHI-aims code. The reason is purely practical (length of this list) - please credit others as well.

------------------------------------------------------------
          Leaving FHI-aims.
          Date     :  20241208, Time     :  133356.422

          Computational steps:
          | Number of self-consistency cycles          :           24
          | Number of SCF (re)initializations          :            1

          Detailed time accounting                     :  max(cpu_time)    wall_clock(cpu1)
          | Total time                                  :      104.428 s         104.431 s
          | Preparation time                            :        0.268 s           0.265 s
          | Boundary condition initalization            :        0.055 s           0.056 s
          | Grid partitioning                           :        0.158 s           0.158 s
          | Preloading free-atom quantities on grid     :        0.484 s           0.484 s
          | Free-atom superposition energy              :        0.070 s           0.070 s
          | Total time for integrations                 :       31.210 s          31.213 s
          | Total time for solution of K.-S. equations  :       10.039 s          10.043 s
          | Total time for density update               :       25.812 s          25.814 s
          | Total time for mixing & preconditioning     :       24.717 s          24.718 s
          | Total time for Hartree multipole update     :        0.086 s           0.084 s
          | Total time for Hartree multipole sum        :        6.572 s           6.571 s
          | Total time for total energy evaluation      :        0.013 s           0.019 s
          | Total time for scaled ZORA corrections      :        1.994 s           1.993 s
          | Total time for Mulliken analysis            :        2.847 s           2.847 s

          Partial memory accounting:
          | Residual value for overall tracked memory usage across tasks:     0.000000 MB (should be 0.000000 MB)
          | Peak values for overall tracked memory usage:
          |   Minimum:       40.424 MB (on task 25 after allocating eval_tmp)
          |   Maximum:       42.929 MB (on task  2 after allocating eval_tmp)
          |   Average:       40.596 MB
          | Largest tracked array allocation:
          |   Minimum:        5.750 MB (overlap_matrix on task  0)
          |   Maximum:        5.750 MB (overlap_matrix on task  0)
          |   Average:        5.750 MB
          Note:  These values currently only include a subset of arrays which are explicitly tracked.
          The "true" memory usage will be greater.

          Have a nice day.
------------------------------------------------------------
