------------------------------------------------------------
          Invoking FHI-aims ...

          When using FHI-aims, please cite the following reference:

            Volker Blum, Ralf Gehrke, Felix Hanke, Paula Havu,
            Ville Havu, Xinguo Ren, Karsten Reuter, and Matthias Scheffler,
            'Ab Initio Molecular Simulations with Numeric Atom-Centered Orbitals',
            Computer Physics Communications 180, 2175-2196 (2009)

          In addition, many other developments in FHI-aims are likely important for
          your particular application. If so, please cite them. A partial list of references
          is written at the end of this file. Thank you for giving credit to the authors
          of these developments.

          For general information about FHI-aims please find us at

            https://fhi-aims.org

          Online tutorials can be found at

            https://fhi-aims-club.gitlab.io/tutorials/tutorials-overview/

          For any questions about FHI-aims, please visit our slack channel at

            https://fhi-aims.slack.com

          and our main development and support site at

            https://aims-git.rz-berlin.mpg.de .

          The latter site, in particular, has a wiki to collect information, as well
          as an issue tracker to log discussions, suggest improvements, and report issues
          or bugs. https://aims-git.rz-berlin.mpg.de is also the main development site
          of the project and all new and updated code versions can be obtained there.
          Please send an email to aims-coordinators@fhi-berlin.mpg.de and we will add
          you to these sites. They are for you and everyone is welcome there.

------------------------------------------------------------



  Date     :  20240925, Time     :  151940.892
  Time zero on CPU 1             :   0.689707000000000E+00  s.
  Internal wall clock time zero  :           496509580.892  s.

  FHI-aims created a unique identifier for this run for later identification
  aims_uuid : E104FA51-FD0F-4DB3-AD3B-83321485836B

  Build configuration of the current instance of FHI-aims
  -------------------------------------------------------
  FHI-aims version      : 240605
  Commit number         : b001b2e18
  CMake host system     : Linux-6.5.0-41-generic
  CMake version         : 3.22.1
  Fortran compiler      : /opt/intel/oneapi/mpi/2021.12/bin/mpiifort (IntelLLVM) version 2024.1.0
  Fortran compiler flags: -fc=ifx -O3 -ip -fp-model precise
  C compiler            : /opt/intel/oneapi/mpi/2021.12/bin/mpiicc (IntelLLVM) version 2024.1.0
  C compiler flags      : -cc=icx -O3 -ip -fp-model precise -std=gnu99
  C++ compiler          : /opt/intel/oneapi/mpi/2021.12/bin/mpiicpc (IntelLLVM) version 2024.1.0
  C++ compiler flags    : -cxx=icpx -O3 -ip -fp-model precise -std=c++11
  HIP compiler          :
  HIP compiler flags    :
  HIP GPU arch          :
  Using MPI
  Using ScaLAPACK
  Using LibXC
  Using i-PI
  Using RLSY
  Linking against: /opt/intel/oneapi/mkl/2024.1/lib/intel64/libmkl_intel_lp64.so
                   /opt/intel/oneapi/mkl/2024.1/lib/intel64/libmkl_sequential.so
                   /opt/intel/oneapi/mkl/2024.1/lib/intel64/libmkl_core.so
                   /opt/intel/oneapi/mkl/2024.1/lib/intel64/libmkl_blacs_intelmpi_lp64.so
                   /opt/intel/oneapi/mkl/2024.1/lib/intel64/libmkl_scalapack_lp64.so
                   /opt/intel/oneapi/mkl/2024.1/lib/intel64/libmkl_core.so

  Using      128 parallel tasks.
  Task        0 on host RSL-arvutus reporting.
  Task        1 on host RSL-arvutus reporting.
  Task        2 on host RSL-arvutus reporting.
  Task        3 on host RSL-arvutus reporting.
  Task        4 on host RSL-arvutus reporting.
  Task        5 on host RSL-arvutus reporting.
  Task        6 on host RSL-arvutus reporting.
  Task        7 on host RSL-arvutus reporting.
  Task        8 on host RSL-arvutus reporting.
  Task        9 on host RSL-arvutus reporting.
  Task       10 on host RSL-arvutus reporting.
  Task       11 on host RSL-arvutus reporting.
  Task       12 on host RSL-arvutus reporting.
  Task       13 on host RSL-arvutus reporting.
  Task       14 on host RSL-arvutus reporting.
  Task       15 on host RSL-arvutus reporting.
  Task       16 on host RSL-arvutus reporting.
  Task       17 on host RSL-arvutus reporting.
  Task       18 on host RSL-arvutus reporting.
  Task       19 on host RSL-arvutus reporting.
  Task       20 on host RSL-arvutus reporting.
  Task       21 on host RSL-arvutus reporting.
  Task       22 on host RSL-arvutus reporting.
  Task       23 on host RSL-arvutus reporting.
  Task       24 on host RSL-arvutus reporting.
  Task       25 on host RSL-arvutus reporting.
  Task       26 on host RSL-arvutus reporting.
  Task       27 on host RSL-arvutus reporting.
  Task       28 on host RSL-arvutus reporting.
  Task       29 on host RSL-arvutus reporting.
  Task       30 on host RSL-arvutus reporting.
  Task       31 on host RSL-arvutus reporting.
  Task       32 on host RSL-arvutus reporting.
  Task       33 on host RSL-arvutus reporting.
  Task       34 on host RSL-arvutus reporting.
  Task       35 on host RSL-arvutus reporting.
  Task       36 on host RSL-arvutus reporting.
  Task       37 on host RSL-arvutus reporting.
  Task       38 on host RSL-arvutus reporting.
  Task       39 on host RSL-arvutus reporting.
  Task       40 on host RSL-arvutus reporting.
  Task       41 on host RSL-arvutus reporting.
  Task       42 on host RSL-arvutus reporting.
  Task       43 on host RSL-arvutus reporting.
  Task       44 on host RSL-arvutus reporting.
  Task       45 on host RSL-arvutus reporting.
  Task       46 on host RSL-arvutus reporting.
  Task       47 on host RSL-arvutus reporting.
  Task       48 on host RSL-arvutus reporting.
  Task       49 on host RSL-arvutus reporting.
  Task       50 on host RSL-arvutus reporting.
  Task       51 on host RSL-arvutus reporting.
  Task       52 on host RSL-arvutus reporting.
  Task       53 on host RSL-arvutus reporting.
  Task       54 on host RSL-arvutus reporting.
  Task       55 on host RSL-arvutus reporting.
  Task       56 on host RSL-arvutus reporting.
  Task       57 on host RSL-arvutus reporting.
  Task       58 on host RSL-arvutus reporting.
  Task       59 on host RSL-arvutus reporting.
  Task       60 on host RSL-arvutus reporting.
  Task       61 on host RSL-arvutus reporting.
  Task       62 on host RSL-arvutus reporting.
  Task       63 on host RSL-arvutus reporting.
  Task       64 on host RSL-arvutus reporting.
  Task       65 on host RSL-arvutus reporting.
  Task       66 on host RSL-arvutus reporting.
  Task       67 on host RSL-arvutus reporting.
  Task       68 on host RSL-arvutus reporting.
  Task       69 on host RSL-arvutus reporting.
  Task       70 on host RSL-arvutus reporting.
  Task       71 on host RSL-arvutus reporting.
  Task       72 on host RSL-arvutus reporting.
  Task       73 on host RSL-arvutus reporting.
  Task       74 on host RSL-arvutus reporting.
  Task       75 on host RSL-arvutus reporting.
  Task       76 on host RSL-arvutus reporting.
  Task       77 on host RSL-arvutus reporting.
  Task       78 on host RSL-arvutus reporting.
  Task       79 on host RSL-arvutus reporting.
  Task       80 on host RSL-arvutus reporting.
  Task       81 on host RSL-arvutus reporting.
  Task       82 on host RSL-arvutus reporting.
  Task       83 on host RSL-arvutus reporting.
  Task       84 on host RSL-arvutus reporting.
  Task       85 on host RSL-arvutus reporting.
  Task       86 on host RSL-arvutus reporting.
  Task       87 on host RSL-arvutus reporting.
  Task       88 on host RSL-arvutus reporting.
  Task       89 on host RSL-arvutus reporting.
  Task       90 on host RSL-arvutus reporting.
  Task       91 on host RSL-arvutus reporting.
  Task       92 on host RSL-arvutus reporting.
  Task       93 on host RSL-arvutus reporting.
  Task       94 on host RSL-arvutus reporting.
  Task       95 on host RSL-arvutus reporting.
  Task       96 on host RSL-arvutus reporting.
  Task       97 on host RSL-arvutus reporting.
  Task       98 on host RSL-arvutus reporting.
  Task       99 on host RSL-arvutus reporting.
  Task      100 on host RSL-arvutus reporting.
  Task      101 on host RSL-arvutus reporting.
  Task      102 on host RSL-arvutus reporting.
  Task      103 on host RSL-arvutus reporting.
  Task      104 on host RSL-arvutus reporting.
  Task      105 on host RSL-arvutus reporting.
  Task      106 on host RSL-arvutus reporting.
  Task      107 on host RSL-arvutus reporting.
  Task      108 on host RSL-arvutus reporting.
  Task      109 on host RSL-arvutus reporting.
  Task      110 on host RSL-arvutus reporting.
  Task      111 on host RSL-arvutus reporting.
  Task      112 on host RSL-arvutus reporting.
  Task      113 on host RSL-arvutus reporting.
  Task      114 on host RSL-arvutus reporting.
  Task      115 on host RSL-arvutus reporting.
  Task      116 on host RSL-arvutus reporting.
  Task      117 on host RSL-arvutus reporting.
  Task      118 on host RSL-arvutus reporting.
  Task      119 on host RSL-arvutus reporting.
  Task      120 on host RSL-arvutus reporting.
  Task      121 on host RSL-arvutus reporting.
  Task      122 on host RSL-arvutus reporting.
  Task      123 on host RSL-arvutus reporting.
  Task      124 on host RSL-arvutus reporting.
  Task      125 on host RSL-arvutus reporting.
  Task      126 on host RSL-arvutus reporting.
  Task      127 on host RSL-arvutus reporting.

  Memory overcommitment is allowed on your operating system.

  Obtaining array dimensions for all initial allocations:
  
  -----------------------------------------------------------------------
  Parsing control.in (first pass over file, find array dimensions only).
  The contents of control.in will be repeated verbatim below
  unless switched off by setting 'verbatim_writeout .false.' .
  in the first line of control.in .
  -----------------------------------------------------------------------
  
    xc              pbe
    relativistic    atomic_zora scalar
    k_grid          3 3 5
  
    output          Mulliken
  
  
  ################################################################################
  #
  #  FHI-aims code project
  #  VB, Fritz-Haber Institut, 2009
  #
  #  Suggested "light" defaults for Ti atom (to be pasted into control.in file)
  #  Be sure to double-check any results obtained with these settings for post-processing,
  #  e.g., with the "tight" defaults and larger basis sets.
  #
  ################################################################################
    species        Ti
  #     global species definitions
      nucleus             22
      mass                47.867
  #
      l_hartree           4
  #
      cut_pot             3.5          1.5  1.0
      basis_dep_cutoff    1e-4
  #
      radial_base         48 5.0
      radial_multiplier   1
      angular_grids       specified
        division   0.5171   50
        division   0.9824  110
        division   1.2917  194
        division   1.4940  302
  #      division   1.6934  434
  #      division   1.8425  590
  #      division   2.1901  770
  #      division   2.2896  974
  #      division   2.8244 1202
  #      outer_grid  974
        outer_grid  302
  ################################################################################
  #
  #  Definition of "minimal" basis
  #
  ################################################################################
  #     valence basis states
      valence      4  s   2.
      valence      3  p   6.
      valence      3  d   2.
  #     ion occupancy
      ion_occ      4  s   1.
      ion_occ      3  p   6.
      ion_occ      3  d   1.
  ################################################################################
  #
  #  Suggested additional basis functions. For production calculations,
  #  uncomment them one after another (the most important basis functions are
  #  listed first).
  #
  #  Constructed for dimers: 1.6 A, 1.85 A, 2.5 A, 3.25 A, 4.25 A
  #
  ################################################################################
  #  "First tier" - improvements: -396.25 meV to -19.41 meV
       hydro 4 f 8
       hydro 3 d 2.7
       ionic 4 p auto
  #     hydro 5 g 11.6
       ionic 4 s auto
  #  "Second tier" - improvements: -16.30 meV to -2.03 meV
  #     hydro 3 d 4.4
  #     hydro 6 h 16
  #     hydro 4 f 9.4
  #     hydro 4 p 4.5
  #     hydro 1 s 0.5
  #  "Third tier" - improvements: -6.28 meV to -0.37 meV
  #     hydro 4 d 6.4
  #     hydro 4 f 10
  #     hydro 5 g 12
  #     hydro 2 p 1.7
  #     hydro 6 h 16.4
  #     hydro 4 s 3.8
  #  Further basis functions: -0.45 meV and smaller improvements
  #     hydro 3 d 8.8
  #     hydro 5 p 18
  #     hydro 4 f 22.4
  #     hydro 5 f 7.2  # -0.16 meV
  #     hydro 3 d 2.1  # -0.11 meV
  #     hydro 5 g 7.4  # -0.09 meV
  
  
  ################################################################################
  #
  #  FHI-aims code project
  #  VB, Fritz-Haber Institut, 2009
  #
  #  Suggested "light" defaults for O atom (to be pasted into control.in file)
  #  Be sure to double-check any results obtained with these settings for post-processing,
  #  e.g., with the "tight" defaults and larger basis sets.
  #
  ################################################################################
    species        O
  #     global species definitions
      nucleus             8
      mass                15.9994
  #
      l_hartree           4
  #
      cut_pot             3.5  1.5  1.0
      basis_dep_cutoff    1e-4
  #
      radial_base         36 5.0
      radial_multiplier   1
       angular_grids specified
        division   0.2659   50
        division   0.4451  110
        division   0.6052  194
        division   0.7543  302
  #      division   0.8014  434
  #      division   0.8507  590
  #      division   0.8762  770
  #      division   0.9023  974
  #      division   1.2339 1202
  #      outer_grid 974
        outer_grid 302
  ################################################################################
  #
  #  Definition of "minimal" basis
  #
  ################################################################################
  #     valence basis states
      valence      2  s   2.
      valence      2  p   4.
  #     ion occupancy
      ion_occ      2  s   1.
      ion_occ      2  p   3.
  ################################################################################
  #
  #  Suggested additional basis functions. For production calculations,
  #  uncomment them one after another (the most important basis functions are
  #  listed first).
  #
  #  Constructed for dimers: 1.0 A, 1.208 A, 1.5 A, 2.0 A, 3.0 A
  #
  ################################################################################
  #  "First tier" - improvements: -699.05 meV to -159.38 meV
       hydro 2 p 1.8
       hydro 3 d 7.6
       hydro 3 s 6.4
  #  "Second tier" - improvements: -49.91 meV to -5.39 meV
  #     hydro 4 f 11.6
  #     hydro 3 p 6.2
  #     hydro 3 d 5.6
  #     hydro 5 g 17.6
  #     hydro 1 s 0.75
  #  "Third tier" - improvements: -2.83 meV to -0.50 meV
  #     ionic 2 p auto
  #     hydro 4 f 10.8
  #     hydro 4 d 4.7
  #     hydro 2 s 6.8
  #  "Fourth tier" - improvements: -0.40 meV to -0.12 meV
  #     hydro 3 p 5
  #     hydro 3 s 3.3
  #     hydro 5 g 15.6
  #     hydro 4 f 17.6
  #     hydro 4 d 14
  # Further basis functions - -0.08 meV and below
  #     hydro 3 s 2.1
  #     hydro 4 d 11.6
  #     hydro 3 p 16
  #     hydro 2 s 17.2
  
  -----------------------------------------------------------------------
  Completed first pass over input file control.in .
  -----------------------------------------------------------------------
  
  
  -----------------------------------------------------------------------
  Parsing geometry.in (first pass over file, find array dimensions only).
  The contents of geometry.in will be repeated verbatim below
  unless switched off by setting 'verbatim_writeout .false.' .
  in the first line of geometry.in .
  -----------------------------------------------------------------------
  
  lattice_vector 13.929185 0.000365 0.000000
  lattice_vector 0.000365 13.929260 0.000000
  lattice_vector 0.000000 0.000000 8.918648
  
  atom_frac 1.000000 0.000000 0.000000 Ti
  atom_frac 0.166667 0.166667 0.166667 Ti
  atom_frac 0.101853 0.101856 0.000000 O
  atom_frac 0.231481 0.231478 0.000000 O
  atom_frac 0.064815 0.268521 0.166667 O
  atom_frac 0.268518 0.064812 0.166667 O
  atom_frac 1.000000 0.000000 0.333333 Ti
  atom_frac 0.166667 0.166667 0.500000 Ti
  atom_frac 0.101853 0.101856 0.333333 O
  atom_frac 0.231481 0.231478 0.333333 O
  atom_frac 0.064815 0.268521 0.500000 O
  atom_frac 0.268518 0.064812 0.500000 O
  atom_frac 1.000000 0.000000 0.666667 Ti
  atom_frac 0.166667 0.166667 0.833333 Ti
  atom_frac 0.101853 0.101856 0.666667 O
  atom_frac 0.231481 0.231478 0.666667 O
  atom_frac 0.064815 0.268521 0.833333 O
  atom_frac 0.268518 0.064812 0.833333 O
  atom_frac 1.000000 0.333333 0.000000 Ti
  atom_frac 0.166667 0.500000 0.166667 Ti
  atom_frac 0.101853 0.435189 0.000000 O
  atom_frac 0.231481 0.564811 0.000000 O
  atom_frac 0.064815 0.601854 0.166667 O
  atom_frac 0.268518 0.398146 0.166667 O
  atom_frac 1.000000 0.333333 0.333333 Ti
  atom_frac 0.166667 0.500000 0.500000 Ti
  atom_frac 0.101853 0.435189 0.333333 O
  atom_frac 0.231481 0.564811 0.333333 O
  atom_frac 0.064815 0.601854 0.500000 O
  atom_frac 0.268518 0.398146 0.500000 O
  atom_frac 1.000000 0.333333 0.666667 Ti
  atom_frac 0.166667 0.500000 0.833333 Ti
  atom_frac 0.101853 0.435189 0.666667 O
  atom_frac 0.231481 0.564811 0.666667 O
  atom_frac 0.064815 0.601854 0.833333 O
  atom_frac 0.268518 0.398146 0.833333 O
  atom_frac 1.000000 0.666667 0.000000 Ti
  atom_frac 0.166667 0.833333 0.166667 Ti
  atom_frac 0.101853 0.768522 0.000000 O
  atom_frac 0.231481 0.898144 0.000000 O
  atom_frac 0.064815 0.935188 0.166667 O
  atom_frac 0.268518 0.731479 0.166667 O
  atom_frac 1.000000 0.666667 0.333333 Ti
  atom_frac 0.166667 0.833333 0.500000 Ti
  atom_frac 0.101853 0.768522 0.333333 O
  atom_frac 0.231481 0.898144 0.333333 O
  atom_frac 0.064815 0.935188 0.500000 O
  atom_frac 0.268518 0.731479 0.500000 O
  atom_frac 1.000000 0.666667 0.666667 Ti
  atom_frac 0.166667 0.833333 0.833333 Ti
  atom_frac 0.101853 0.768522 0.666667 O
  atom_frac 0.231481 0.898144 0.666667 O
  atom_frac 0.064815 0.935188 0.833333 O
  atom_frac 0.268518 0.731479 0.833333 O
  atom_frac 0.333333 0.000000 0.000000 Ti
  atom_frac 0.500000 0.166667 0.166667 Ti
  atom_frac 0.435186 0.101856 0.000000 O
  atom_frac 0.564814 0.231478 0.000000 O
  atom_frac 0.398149 0.268521 0.166667 O
  atom_frac 0.601851 0.064812 0.166667 O
  atom_frac 0.333333 0.000000 0.333333 Ti
  atom_frac 0.500000 0.166667 0.500000 Ti
  atom_frac 0.435186 0.101856 0.333333 O
  atom_frac 0.564814 0.231478 0.333333 O
  atom_frac 0.398149 0.268521 0.500000 O
  atom_frac 0.601851 0.064812 0.500000 O
  atom_frac 0.333333 0.000000 0.666667 Ti
  atom_frac 0.500000 0.166667 0.833333 Ti
  atom_frac 0.435186 0.101856 0.666667 O
  atom_frac 0.564814 0.231478 0.666667 O
  atom_frac 0.398149 0.268521 0.833333 O
  atom_frac 0.601851 0.064812 0.833333 O
  atom_frac 0.333333 0.333333 0.000000 Ti
  atom_frac 0.500000 0.500000 0.166667 Ti
  atom_frac 0.435186 0.435189 0.000000 O
  atom_frac 0.564814 0.564811 0.000000 O
  atom_frac 0.398149 0.601854 0.166667 O
  atom_frac 0.601851 0.398146 0.166667 O
  atom_frac 0.333333 0.333333 0.333333 Ti
  atom_frac 0.500000 0.500000 0.500000 Ti
  atom_frac 0.435186 0.435189 0.333333 O
  atom_frac 0.564814 0.564811 0.333333 O
  atom_frac 0.398149 0.601854 0.500000 O
  atom_frac 0.601851 0.398146 0.500000 O
  atom_frac 0.333333 0.333333 0.666667 Ti
  atom_frac 0.500000 0.500000 0.833333 Ti
  atom_frac 0.435186 0.435189 0.666667 O
  atom_frac 0.564814 0.564811 0.666667 O
  atom_frac 0.398149 0.601854 0.833333 O
  atom_frac 0.601851 0.398146 0.833333 O
  atom_frac 0.333333 0.666667 0.000000 Ti
  atom_frac 0.500000 0.833333 0.166667 Ti
  atom_frac 0.435186 0.768522 0.000000 O
  atom_frac 0.564814 0.898144 0.000000 O
  atom_frac 0.398149 0.935188 0.166667 O
  atom_frac 0.601851 0.731479 0.166667 O
  atom_frac 0.333333 0.666667 0.333333 Ti
  atom_frac 0.500000 0.833333 0.500000 Ti
  atom_frac 0.435186 0.768522 0.333333 O
  atom_frac 0.564814 0.898144 0.333333 O
  atom_frac 0.398149 0.935188 0.500000 O
  atom_frac 0.601851 0.731479 0.500000 O
  atom_frac 0.333333 0.666667 0.666667 Ti
  atom_frac 0.500000 0.833333 0.833333 Ti
  atom_frac 0.435186 0.768522 0.666667 O
  atom_frac 0.564814 0.898144 0.666667 O
  atom_frac 0.398149 0.935188 0.833333 O
  atom_frac 0.601851 0.731479 0.833333 O
  atom_frac 0.666667 0.000000 0.000000 Ti
  atom_frac 0.833333 0.166667 0.166667 Ti
  atom_frac 0.768519 0.101856 0.000000 O
  atom_frac 0.898147 0.231478 0.000000 O
  atom_frac 0.731482 0.268521 0.166667 O
  atom_frac 0.935185 0.064812 0.166667 O
  atom_frac 0.666667 0.000000 0.333333 Ti
  atom_frac 0.833333 0.166667 0.500000 Ti
  atom_frac 0.768519 0.101856 0.333333 O
  atom_frac 0.898147 0.231478 0.333333 O
  atom_frac 0.731482 0.268521 0.500000 O
  atom_frac 0.935185 0.064812 0.500000 O
  atom_frac 0.666667 0.000000 0.666667 Ti
  atom_frac 0.833333 0.166667 0.833333 Ti
  atom_frac 0.768519 0.101856 0.666667 O
  atom_frac 0.898147 0.231478 0.666667 O
  atom_frac 0.731482 0.268521 0.833333 O
  atom_frac 0.935185 0.064812 0.833333 O
  atom_frac 0.666667 0.333333 0.000000 Ti
  atom_frac 0.833333 0.500000 0.166667 Ti
  atom_frac 0.768519 0.435189 0.000000 O
  atom_frac 0.898147 0.564811 0.000000 O
  atom_frac 0.731482 0.601854 0.166667 O
  atom_frac 0.935185 0.398146 0.166667 O
  atom_frac 0.666667 0.333333 0.333333 Ti
  atom_frac 0.833333 0.500000 0.500000 Ti
  atom_frac 0.768519 0.435189 0.333333 O
  atom_frac 0.898147 0.564811 0.333333 O
  atom_frac 0.731482 0.601854 0.500000 O
  atom_frac 0.935185 0.398146 0.500000 O
  atom_frac 0.666667 0.333333 0.666667 Ti
  atom_frac 0.833333 0.500000 0.833333 Ti
  atom_frac 0.768519 0.435189 0.666667 O
  atom_frac 0.898147 0.564811 0.666667 O
  atom_frac 0.731482 0.601854 0.833333 O
  atom_frac 0.935185 0.398146 0.833333 O
  atom_frac 0.666667 0.666667 0.000000 Ti
  atom_frac 0.833333 0.833333 0.166667 Ti
  atom_frac 0.768519 0.768522 0.000000 O
  atom_frac 0.898147 0.898144 0.000000 O
  atom_frac 0.731482 0.935188 0.166667 O
  atom_frac 0.935185 0.731479 0.166667 O
  atom_frac 0.666667 0.666667 0.333333 Ti
  atom_frac 0.833333 0.833333 0.500000 Ti
  atom_frac 0.768519 0.768522 0.333333 O
  atom_frac 0.898147 0.898144 0.333333 O
  atom_frac 0.731482 0.935188 0.500000 O
  atom_frac 0.935185 0.731479 0.500000 O
  atom_frac 0.666667 0.666667 0.666667 Ti
  atom_frac 0.833333 0.833333 0.833333 Ti
  atom_frac 0.768519 0.768522 0.666667 O
  atom_frac 0.898147 0.898144 0.666667 O
  atom_frac 0.731482 0.935188 0.833333 O
  atom_frac 0.935185 0.731479 0.833333 O
  
  -----------------------------------------------------------------------
  Completed first pass over input file geometry.in .
  -----------------------------------------------------------------------
  

  Basic array size parameters:
  | Number of species                 :        2
  | Number of atoms                   :      162
  | Number of lattice vectors         :        3
  | Max. basis fn. angular momentum   :        3
  | Max. atomic/ionic basis occupied n:        4
  | Max. number of basis fn. types    :        3
  | Max. radial fns per species/type  :        7
  | Max. logarithmic grid size        :     1383
  | Max. radial integration grid size :       48
  | Max. angular integration grid size:      302
  | Max. angular grid division number :        8
  | Radial grid for Hartree potential :     1383
  | Number of spin channels           :        1

------------------------------------------------------------
          Reading file control.in.
------------------------------------------------------------
  XC: Using PBE gradient-corrected functionals.
  Scalar relativistic treatment of kinetic energy: on-site free-atom approximation to ZORA.
  Found k-point grid:         3         3         5
  Mulliken charge analysis will be performed and summarised to the main output.
  Full Mulliken charge analysis will be written to file 'Mulliken.out'.
 
  Reading configuration options for species Ti                  .
  | Found nuclear charge :  22.0000
  | Found atomic mass :    47.8670000000000      amu
  | Found l_max for Hartree potential  :   4
  | Found cutoff potl. onset [A], width [A], scale factor :    3.50000    1.50000    1.00000
  | Threshold for basis-dependent cutoff potential is   0.100000E-03
  | Found data for basic radial integration grid :    48 points, outermost radius =    5.000 A
  | Found multiplier for basic radial grid :   1
  | Found angular grid specification: user-specified.
  | Specified grid contains     5 separate shells.
  | Check grid settings after all constraints further below.
  | Found free-atom valence shell :  4 s   2.000
  | Found free-atom valence shell :  3 p   6.000
  | Found free-atom valence shell :  3 d   2.000
  | Found free-ion valence shell :  4 s   1.000
  | Found free-ion valence shell :  3 p   6.000
  | Found free-ion valence shell :  3 d   1.000
  | Found hydrogenic basis function :  4 f   8.000
  | Found hydrogenic basis function :  3 d   2.700
  | Found ionic basis function :  4 p , default cutoff radius.
  | Found ionic basis function :  4 s , default cutoff radius.
 | Encountered keyword species, ending the description of species Ti                  .
  Species Ti                  : Missing cutoff potential type.
  Defaulting to exp(1/x)/(1-x)^2 type cutoff potential.
  Species Ti: No 'logarithmic' tag. Using default grid for free atom:
  | Default logarithmic grid data [bohr] : 0.1000E-03 0.1000E+03 0.1012E+01
  | Will include ionic basis functions of  2.0-fold positive Ti                   ion.
  Species Ti: On-site basis accuracy parameter (for Gram-Schmidt orthonormalisation) not specified.
  Using default value basis_acc =  0.1000000E-03.
  Species Ti                  : Using default innermost maximum threshold i_radial=  2 for radial functions.
  Species Ti                  : Default cutoff onset for free atom density etc. : 0.35000000E+01 AA.
  Species Ti                  : Basic radial grid will be enhanced according to radial_multiplier =   1, to contain    48 grid points.
 
  Reading configuration options for species O                   .
  | Found nuclear charge :   8.0000
  | Found atomic mass :    15.9994000000000      amu
  | Found l_max for Hartree potential  :   4
  | Found cutoff potl. onset [A], width [A], scale factor :    3.50000    1.50000    1.00000
  | Threshold for basis-dependent cutoff potential is   0.100000E-03
  | Found data for basic radial integration grid :    36 points, outermost radius =    5.000 A
  | Found multiplier for basic radial grid :   1
  | Found angular grid specification: user-specified.
  | Specified grid contains     5 separate shells.
  | Check grid settings after all constraints further below.
  | Found free-atom valence shell :  2 s   2.000
  | Found free-atom valence shell :  2 p   4.000
  | Found free-ion valence shell :  2 s   1.000
  | Found free-ion valence shell :  2 p   3.000
  | Found hydrogenic basis function :  2 p   1.800
  | Found hydrogenic basis function :  3 d   7.600
  | Found hydrogenic basis function :  3 s   6.400
  Species O                   : Missing cutoff potential type.
  Defaulting to exp(1/x)/(1-x)^2 type cutoff potential.
  Species O : No 'logarithmic' tag. Using default grid for free atom:
  | Default logarithmic grid data [bohr] : 0.1000E-03 0.1000E+03 0.1012E+01
  Species O : On-site basis accuracy parameter (for Gram-Schmidt orthonormalisation) not specified.
  Using default value basis_acc =  0.1000000E-03.
  Species O                   : Using default innermost maximum threshold i_radial=  2 for radial functions.
  Species O                   : Default cutoff onset for free atom density etc. : 0.35000000E+01 AA.
  Species O                   : Basic radial grid will be enhanced according to radial_multiplier =   1, to contain    36 grid points.
 
  Finished reading input file 'control.in'.
 
------------------------------------------------------------


------------------------------------------------------------
          Reading geometry description geometry.in.
------------------------------------------------------------
  | The smallest distance between any two atoms is         1.95946585 AA.
  | The first atom of this pair is atom number                    125 .
  | The second atom of this pair is atom number                   139 .
  | Wigner-Seitz cell of the first atom image           0     0     0 .
  | (The Wigner-Seitz cell of the second atom is 0 0 0  by definition.)

  Symmetry information by spglib:
  | Precision set to  0.1E-04
  | Number of Operations  : 4
  | Space group           : 10
  | International         : P2/m
  | Schoenflies           : C2h^1
  Input structure read successfully.
  The structure contains      162 atoms,  and a total of       2052.000 electrons.

  Input geometry:
  | Unit cell:
  |       13.92918500        0.00036500        0.00000000
  |        0.00036500       13.92926000        0.00000000
  |        0.00000000        0.00000000        8.91864800
  | Atomic structure:
  |       Atom                x [A]            y [A]            z [A]
  |    1: Species Ti           13.92918500        0.00036500        0.00000000
  |    2: Species Ti            2.32159631        2.32160881        1.48644431
  |    3: Species O             1.41876646        1.41881588        0.00000000
  |    4: Species O             3.22442616        3.22440174        0.00000000
  |    5: Species O             0.90291814        3.74032248        1.48644431
  |    6: Species O             3.74026055        0.90288121        1.48644431
  |    7: Species Ti           13.92918500        0.00036500        2.97287969
  |    8: Species Ti            2.32159631        2.32160881        4.45932400
  |    9: Species O             1.41876646        1.41881588        2.97287969
  |   10: Species O             3.22442616        3.22440174        2.97287969
  |   11: Species O             0.90291814        3.74032248        4.45932400
  |   12: Species O             3.74026055        0.90288121        4.45932400
  |   13: Species Ti           13.92918500        0.00036500        5.94576831
  |   14: Species Ti            2.32159631        2.32160881        7.43220369
  |   15: Species O             1.41876646        1.41881588        5.94576831
  |   16: Species O             3.22442616        3.22440174        5.94576831
  |   17: Species O             0.90291814        3.74032248        7.43220369
  |   18: Species O             3.74026055        0.90288121        7.43220369
  |   19: Species Ti           13.92930667        4.64344702        0.00000000
  |   20: Species Ti            2.32171798        6.96469083        1.48644431
  |   21: Species O             1.41888812        6.06189791        0.00000000
  |   22: Species O             3.22454783        7.86748376        0.00000000
  |   23: Species O             0.90303980        8.38340451        1.48644431
  |   24: Species O             3.74038222        5.54597716        1.48644431
  |   25: Species Ti           13.92930667        4.64344702        2.97287969
  |   26: Species Ti            2.32171798        6.96469083        4.45932400
  |   27: Species O             1.41888812        6.06189791        2.97287969
  |   28: Species O             3.22454783        7.86748376        2.97287969
  |   29: Species O             0.90303980        8.38340451        4.45932400
  |   30: Species O             3.74038222        5.54597716        4.45932400
  |   31: Species Ti           13.92930667        4.64344702        5.94576831
  |   32: Species Ti            2.32171798        6.96469083        7.43220369
  |   33: Species O             1.41888812        6.06189791        5.94576831
  |   34: Species O             3.22454783        7.86748376        5.94576831
  |   35: Species O             0.90303980        8.38340451        7.43220369
  |   36: Species O             3.74038222        5.54597716        7.43220369
  |   37: Species Ti           13.92942833        9.28654298        0.00000000
  |   38: Species Ti            2.32183964       11.60777286        1.48644431
  |   39: Species O             1.41900979       10.70497993        0.00000000
  |   40: Species O             3.22466950       12.51056578        0.00000000
  |   41: Species O             0.90316147       13.02650046        1.48644431
  |   42: Species O             3.74050389       10.18905918        1.48644431
  |   43: Species Ti           13.92942833        9.28654298        2.97287969
  |   44: Species Ti            2.32183964       11.60777286        4.45932400
  |   45: Species O             1.41900979       10.70497993        2.97287969
  |   46: Species O             3.22466950       12.51056578        2.97287969
  |   47: Species O             0.90316147       13.02650046        4.45932400
  |   48: Species O             3.74050389       10.18905918        4.45932400
  |   49: Species Ti           13.92942833        9.28654298        5.94576831
  |   50: Species Ti            2.32183964       11.60777286        7.43220369
  |   51: Species O             1.41900979       10.70497993        5.94576831
  |   52: Species O             3.22466950       12.51056578        5.94576831
  |   53: Species O             0.90316147       13.02650046        7.43220369
  |   54: Species O             3.74050389       10.18905918        7.43220369
  |   55: Species Ti            4.64305702        0.00012167        0.00000000
  |   56: Species Ti            6.96465333        2.32173048        1.48644431
  |   57: Species O             6.06182348        1.41893755        0.00000000
  |   58: Species O             7.86748319        3.22452340        0.00000000
  |   59: Species O             5.54598909        3.74044415        1.48644431
  |   60: Species O             8.38331758        0.90300287        1.48644431
  |   61: Species Ti            4.64305702        0.00012167        2.97287969
  |   62: Species Ti            6.96465333        2.32173048        4.45932400
  |   63: Species O             6.06182348        1.41893755        2.97287969
  |   64: Species O             7.86748319        3.22452340        2.97287969
  |   65: Species O             5.54598909        3.74044415        4.45932400
  |   66: Species O             8.38331758        0.90300287        4.45932400
  |   67: Species Ti            4.64305702        0.00012167        5.94576831
  |   68: Species Ti            6.96465333        2.32173048        7.43220369
  |   69: Species O             6.06182348        1.41893755        5.94576831
  |   70: Species O             7.86748319        3.22452340        5.94576831
  |   71: Species O             5.54598909        3.74044415        7.43220369
  |   72: Species O             8.38331758        0.90300287        7.43220369
  |   73: Species Ti            4.64317869        4.64320369        0.00000000
  |   74: Species Ti            6.96477500        6.96481250        1.48644431
  |   75: Species O             6.06194515        6.06201957        0.00000000
  |   76: Species O             7.86760485        7.86760543        0.00000000
  |   77: Species O             5.54611076        8.38352617        1.48644431
  |   78: Species O             8.38343924        5.54609883        1.48644431
  |   79: Species Ti            4.64317869        4.64320369        2.97287969
  |   80: Species Ti            6.96477500        6.96481250        4.45932400
  |   81: Species O             6.06194515        6.06201957        2.97287969
  |   82: Species O             7.86760485        7.86760543        2.97287969
  |   83: Species O             5.54611076        8.38352617        4.45932400
  |   84: Species O             8.38343924        5.54609883        4.45932400
  |   85: Species Ti            4.64317869        4.64320369        5.94576831
  |   86: Species Ti            6.96477500        6.96481250        7.43220369
  |   87: Species O             6.06194515        6.06201957        5.94576831
  |   88: Species O             7.86760485        7.86760543        5.94576831
  |   89: Species O             5.54611076        8.38352617        7.43220369
  |   90: Species O             8.38343924        5.54609883        7.43220369
  |   91: Species Ti            4.64330036        9.28629964        0.00000000
  |   92: Species Ti            6.96489667       11.60789452        1.48644431
  |   93: Species O             6.06206681       10.70510160        0.00000000
  |   94: Species O             7.86772652       12.51068745        0.00000000
  |   95: Species O             5.54623242       13.02662213        1.48644431
  |   96: Species O             8.38356091       10.18918085        1.48644431
  |   97: Species Ti            4.64330036        9.28629964        2.97287969
  |   98: Species Ti            6.96489667       11.60789452        4.45932400
  |   99: Species O             6.06206681       10.70510160        2.97287969
  |  100: Species O             7.86772652       12.51068745        2.97287969
  |  101: Species O             5.54623242       13.02662213        4.45932400
  |  102: Species O             8.38356091       10.18918085        4.45932400
  |  103: Species Ti            4.64330036        9.28629964        5.94576831
  |  104: Species Ti            6.96489667       11.60789452        7.43220369
  |  105: Species O             6.06206681       10.70510160        5.94576831
  |  106: Species O             7.86772652       12.51068745        5.94576831
  |  107: Species O             5.54623242       13.02662213        7.43220369
  |  108: Species O             8.38356091       10.18918085        7.43220369
  |  109: Species Ti            9.28612798        0.00024333        0.00000000
  |  110: Species Ti           11.60771036        2.32185214        1.48644431
  |  111: Species O            10.70488050        1.41905922        0.00000000
  |  112: Species O            12.51054021        3.22464507        0.00000000
  |  113: Species O            10.18904611        3.74056582        1.48644431
  |  114: Species O            13.02638853        0.90312454        1.48644431
  |  115: Species Ti            9.28612798        0.00024333        2.97287969
  |  116: Species Ti           11.60771036        2.32185214        4.45932400
  |  117: Species O            10.70488050        1.41905922        2.97287969
  |  118: Species O            12.51054021        3.22464507        2.97287969
  |  119: Species O            10.18904611        3.74056582        4.45932400
  |  120: Species O            13.02638853        0.90312454        4.45932400
  |  121: Species Ti            9.28612798        0.00024333        5.94576831
  |  122: Species Ti           11.60771036        2.32185214        7.43220369
  |  123: Species O            10.70488050        1.41905922        5.94576831
  |  124: Species O            12.51054021        3.22464507        5.94576831
  |  125: Species O            10.18904611        3.74056582        7.43220369
  |  126: Species O            13.02638853        0.90312454        7.43220369
  |  127: Species Ti            9.28624964        4.64332536        0.00000000
  |  128: Species Ti           11.60783202        6.96493417        1.48644431
  |  129: Species O            10.70500217        6.06214124        0.00000000
  |  130: Species O            12.51066188        7.86772709        0.00000000
  |  131: Species O            10.18916778        8.38364784        1.48644431
  |  132: Species O            13.02651020        5.54622049        1.48644431
  |  133: Species Ti            9.28624964        4.64332536        2.97287969
  |  134: Species Ti           11.60783202        6.96493417        4.45932400
  |  135: Species O            10.70500217        6.06214124        2.97287969
  |  136: Species O            12.51066188        7.86772709        2.97287969
  |  137: Species O            10.18916778        8.38364784        4.45932400
  |  138: Species O            13.02651020        5.54622049        4.45932400
  |  139: Species Ti            9.28624964        4.64332536        5.94576831
  |  140: Species Ti           11.60783202        6.96493417        7.43220369
  |  141: Species O            10.70500217        6.06214124        5.94576831
  |  142: Species O            12.51066188        7.86772709        5.94576831
  |  143: Species O            10.18916778        8.38364784        7.43220369
  |  144: Species O            13.02651020        5.54622049        7.43220369
  |  145: Species Ti            9.28637131        9.28642131        0.00000000
  |  146: Species Ti           11.60795369       11.60801619        1.48644431
  |  147: Species O            10.70512384       10.70522326        0.00000000
  |  148: Species O            12.51078354       12.51080912        0.00000000
  |  149: Species O            10.18928945       13.02674379        1.48644431
  |  150: Species O            13.02663186       10.18930252        1.48644431
  |  151: Species Ti            9.28637131        9.28642131        2.97287969
  |  152: Species Ti           11.60795369       11.60801619        4.45932400
  |  153: Species O            10.70512384       10.70522326        2.97287969
  |  154: Species O            12.51078354       12.51080912        2.97287969
  |  155: Species O            10.18928945       13.02674379        4.45932400
  |  156: Species O            13.02663186       10.18930252        4.45932400
  |  157: Species Ti            9.28637131        9.28642131        5.94576831
  |  158: Species Ti           11.60795369       11.60801619        7.43220369
  |  159: Species O            10.70512384       10.70522326        5.94576831
  |  160: Species O            12.51078354       12.51080912        5.94576831
  |  161: Species O            10.18928945       13.02674379        7.43220369
  |  162: Species O            13.02663186       10.18930252        7.43220369

  Lattice parameters for 3D lattice (in Angstroms) :    13.929185   13.929260    8.918648
  Angle(s) between unit vectors (in degrees)       :    90.000000   90.000000   89.996997


  Quantities derived from the lattice vectors (in Angstrom^-1):
  | Reciprocal lattice vector 1:  0.451081 -0.000012  0.000000
  | Reciprocal lattice vector 2: -0.000012  0.451078  0.000000
  | Reciprocal lattice vector 3:  0.000000  0.000000  0.704500
  | Unit cell volume                               :   0.173042E+04  Angstrom^3

  Fractional coordinates:
                         L1                L2                L3
       atom_frac         1.00000000        0.00000000        0.00000000  Ti
       atom_frac         0.16666700        0.16666700        0.16666700  Ti
       atom_frac         0.10185300        0.10185600        0.00000000  O
       atom_frac         0.23148100        0.23147800        0.00000000  O
       atom_frac         0.06481500        0.26852100        0.16666700  O
       atom_frac         0.26851800        0.06481200        0.16666700  O
       atom_frac         1.00000000        0.00000000        0.33333300  Ti
       atom_frac         0.16666700        0.16666700        0.50000000  Ti
       atom_frac         0.10185300        0.10185600        0.33333300  O
       atom_frac         0.23148100        0.23147800        0.33333300  O
       atom_frac         0.06481500        0.26852100        0.50000000  O
       atom_frac         0.26851800        0.06481200        0.50000000  O
       atom_frac         1.00000000        0.00000000        0.66666700  Ti
       atom_frac         0.16666700        0.16666700        0.83333300  Ti
       atom_frac         0.10185300        0.10185600        0.66666700  O
       atom_frac         0.23148100        0.23147800        0.66666700  O
       atom_frac         0.06481500        0.26852100        0.83333300  O
       atom_frac         0.26851800        0.06481200        0.83333300  O
       atom_frac         1.00000000        0.33333300        0.00000000  Ti
       atom_frac         0.16666700        0.50000000        0.16666700  Ti
       atom_frac         0.10185300        0.43518900        0.00000000  O
       atom_frac         0.23148100        0.56481100        0.00000000  O
       atom_frac         0.06481500        0.60185400        0.16666700  O
       atom_frac         0.26851800        0.39814600        0.16666700  O
       atom_frac         1.00000000        0.33333300        0.33333300  Ti
       atom_frac         0.16666700        0.50000000        0.50000000  Ti
       atom_frac         0.10185300        0.43518900        0.33333300  O
       atom_frac         0.23148100        0.56481100        0.33333300  O
       atom_frac         0.06481500        0.60185400        0.50000000  O
       atom_frac         0.26851800        0.39814600        0.50000000  O
       atom_frac         1.00000000        0.33333300        0.66666700  Ti
       atom_frac         0.16666700        0.50000000        0.83333300  Ti
       atom_frac         0.10185300        0.43518900        0.66666700  O
       atom_frac         0.23148100        0.56481100        0.66666700  O
       atom_frac         0.06481500        0.60185400        0.83333300  O
       atom_frac         0.26851800        0.39814600        0.83333300  O
       atom_frac         1.00000000        0.66666700        0.00000000  Ti
       atom_frac         0.16666700        0.83333300        0.16666700  Ti
       atom_frac         0.10185300        0.76852200        0.00000000  O
       atom_frac         0.23148100        0.89814400        0.00000000  O
       atom_frac         0.06481500        0.93518800        0.16666700  O
       atom_frac         0.26851800        0.73147900        0.16666700  O
       atom_frac         1.00000000        0.66666700        0.33333300  Ti
       atom_frac         0.16666700        0.83333300        0.50000000  Ti
       atom_frac         0.10185300        0.76852200        0.33333300  O
       atom_frac         0.23148100        0.89814400        0.33333300  O
       atom_frac         0.06481500        0.93518800        0.50000000  O
       atom_frac         0.26851800        0.73147900        0.50000000  O
       atom_frac         1.00000000        0.66666700        0.66666700  Ti
       atom_frac         0.16666700        0.83333300        0.83333300  Ti
       atom_frac         0.10185300        0.76852200        0.66666700  O
       atom_frac         0.23148100        0.89814400        0.66666700  O
       atom_frac         0.06481500        0.93518800        0.83333300  O
       atom_frac         0.26851800        0.73147900        0.83333300  O
       atom_frac         0.33333300        0.00000000        0.00000000  Ti
       atom_frac         0.50000000        0.16666700        0.16666700  Ti
       atom_frac         0.43518600        0.10185600        0.00000000  O
       atom_frac         0.56481400        0.23147800        0.00000000  O
       atom_frac         0.39814900        0.26852100        0.16666700  O
       atom_frac         0.60185100        0.06481200        0.16666700  O
       atom_frac         0.33333300        0.00000000        0.33333300  Ti
       atom_frac         0.50000000        0.16666700        0.50000000  Ti
       atom_frac         0.43518600        0.10185600        0.33333300  O
       atom_frac         0.56481400        0.23147800        0.33333300  O
       atom_frac         0.39814900        0.26852100        0.50000000  O
       atom_frac         0.60185100        0.06481200        0.50000000  O
       atom_frac         0.33333300        0.00000000        0.66666700  Ti
       atom_frac         0.50000000        0.16666700        0.83333300  Ti
       atom_frac         0.43518600        0.10185600        0.66666700  O
       atom_frac         0.56481400        0.23147800        0.66666700  O
       atom_frac         0.39814900        0.26852100        0.83333300  O
       atom_frac         0.60185100        0.06481200        0.83333300  O
       atom_frac         0.33333300        0.33333300        0.00000000  Ti
       atom_frac         0.50000000        0.50000000        0.16666700  Ti
       atom_frac         0.43518600        0.43518900        0.00000000  O
       atom_frac         0.56481400        0.56481100        0.00000000  O
       atom_frac         0.39814900        0.60185400        0.16666700  O
       atom_frac         0.60185100        0.39814600        0.16666700  O
       atom_frac         0.33333300        0.33333300        0.33333300  Ti
       atom_frac         0.50000000        0.50000000        0.50000000  Ti
       atom_frac         0.43518600        0.43518900        0.33333300  O
       atom_frac         0.56481400        0.56481100        0.33333300  O
       atom_frac         0.39814900        0.60185400        0.50000000  O
       atom_frac         0.60185100        0.39814600        0.50000000  O
       atom_frac         0.33333300        0.33333300        0.66666700  Ti
       atom_frac         0.50000000        0.50000000        0.83333300  Ti
       atom_frac         0.43518600        0.43518900        0.66666700  O
       atom_frac         0.56481400        0.56481100        0.66666700  O
       atom_frac         0.39814900        0.60185400        0.83333300  O
       atom_frac         0.60185100        0.39814600        0.83333300  O
       atom_frac         0.33333300        0.66666700        0.00000000  Ti
       atom_frac         0.50000000        0.83333300        0.16666700  Ti
       atom_frac         0.43518600        0.76852200        0.00000000  O
       atom_frac         0.56481400        0.89814400        0.00000000  O
       atom_frac         0.39814900        0.93518800        0.16666700  O
       atom_frac         0.60185100        0.73147900        0.16666700  O
       atom_frac         0.33333300        0.66666700        0.33333300  Ti
       atom_frac         0.50000000        0.83333300        0.50000000  Ti
       atom_frac         0.43518600        0.76852200        0.33333300  O
       atom_frac         0.56481400        0.89814400        0.33333300  O
       atom_frac         0.39814900        0.93518800        0.50000000  O
       atom_frac         0.60185100        0.73147900        0.50000000  O
       atom_frac         0.33333300        0.66666700        0.66666700  Ti
       atom_frac         0.50000000        0.83333300        0.83333300  Ti
       atom_frac         0.43518600        0.76852200        0.66666700  O
       atom_frac         0.56481400        0.89814400        0.66666700  O
       atom_frac         0.39814900        0.93518800        0.83333300  O
       atom_frac         0.60185100        0.73147900        0.83333300  O
       atom_frac         0.66666700        0.00000000        0.00000000  Ti
       atom_frac         0.83333300        0.16666700        0.16666700  Ti
       atom_frac         0.76851900        0.10185600        0.00000000  O
       atom_frac         0.89814700        0.23147800        0.00000000  O
       atom_frac         0.73148200        0.26852100        0.16666700  O
       atom_frac         0.93518500        0.06481200        0.16666700  O
       atom_frac         0.66666700        0.00000000        0.33333300  Ti
       atom_frac         0.83333300        0.16666700        0.50000000  Ti
       atom_frac         0.76851900        0.10185600        0.33333300  O
       atom_frac         0.89814700        0.23147800        0.33333300  O
       atom_frac         0.73148200        0.26852100        0.50000000  O
       atom_frac         0.93518500        0.06481200        0.50000000  O
       atom_frac         0.66666700        0.00000000        0.66666700  Ti
       atom_frac         0.83333300        0.16666700        0.83333300  Ti
       atom_frac         0.76851900        0.10185600        0.66666700  O
       atom_frac         0.89814700        0.23147800        0.66666700  O
       atom_frac         0.73148200        0.26852100        0.83333300  O
       atom_frac         0.93518500        0.06481200        0.83333300  O
       atom_frac         0.66666700        0.33333300        0.00000000  Ti
       atom_frac         0.83333300        0.50000000        0.16666700  Ti
       atom_frac         0.76851900        0.43518900        0.00000000  O
       atom_frac         0.89814700        0.56481100        0.00000000  O
       atom_frac         0.73148200        0.60185400        0.16666700  O
       atom_frac         0.93518500        0.39814600        0.16666700  O
       atom_frac         0.66666700        0.33333300        0.33333300  Ti
       atom_frac         0.83333300        0.50000000        0.50000000  Ti
       atom_frac         0.76851900        0.43518900        0.33333300  O
       atom_frac         0.89814700        0.56481100        0.33333300  O
       atom_frac         0.73148200        0.60185400        0.50000000  O
       atom_frac         0.93518500        0.39814600        0.50000000  O
       atom_frac         0.66666700        0.33333300        0.66666700  Ti
       atom_frac         0.83333300        0.50000000        0.83333300  Ti
       atom_frac         0.76851900        0.43518900        0.66666700  O
       atom_frac         0.89814700        0.56481100        0.66666700  O
       atom_frac         0.73148200        0.60185400        0.83333300  O
       atom_frac         0.93518500        0.39814600        0.83333300  O
       atom_frac         0.66666700        0.66666700        0.00000000  Ti
       atom_frac         0.83333300        0.83333300        0.16666700  Ti
       atom_frac         0.76851900        0.76852200        0.00000000  O
       atom_frac         0.89814700        0.89814400        0.00000000  O
       atom_frac         0.73148200        0.93518800        0.16666700  O
       atom_frac         0.93518500        0.73147900        0.16666700  O
       atom_frac         0.66666700        0.66666700        0.33333300  Ti
       atom_frac         0.83333300        0.83333300        0.50000000  Ti
       atom_frac         0.76851900        0.76852200        0.33333300  O
       atom_frac         0.89814700        0.89814400        0.33333300  O
       atom_frac         0.73148200        0.93518800        0.50000000  O
       atom_frac         0.93518500        0.73147900        0.50000000  O
       atom_frac         0.66666700        0.66666700        0.66666700  Ti
       atom_frac         0.83333300        0.83333300        0.83333300  Ti
       atom_frac         0.76851900        0.76852200        0.66666700  O
       atom_frac         0.89814700        0.89814400        0.66666700  O
       atom_frac         0.73148200        0.93518800        0.83333300  O
       atom_frac         0.93518500        0.73147900        0.83333300  O

  Slab Identifier: This seems to be a bulk system.
 
  Finished reading input file 'geometry.in'.
 

 
  Consistency checks for stacksize environment parameter are next.
 
  | Maximum stacksize for task 0: unlimited
  | Maximum stacksize for task 1: unlimited
  | Maximum stacksize for task 2: unlimited
  | Maximum stacksize for task 3: unlimited
  | Maximum stacksize for task 4: unlimited
  | Maximum stacksize for task 5: unlimited
  | Maximum stacksize for task 6: unlimited
  | Maximum stacksize for task 7: unlimited
  | Maximum stacksize for task 8: unlimited
  | Maximum stacksize for task 9: unlimited
  | Maximum stacksize for task 10: unlimited
  | Maximum stacksize for task 11: unlimited
  | Maximum stacksize for task 12: unlimited
  | Maximum stacksize for task 13: unlimited
  | Maximum stacksize for task 14: unlimited
  | Maximum stacksize for task 15: unlimited
  | Maximum stacksize for task 16: unlimited
  | Maximum stacksize for task 17: unlimited
  | Maximum stacksize for task 18: unlimited
  | Maximum stacksize for task 19: unlimited
  | Maximum stacksize for task 20: unlimited
  | Maximum stacksize for task 21: unlimited
  | Maximum stacksize for task 22: unlimited
  | Maximum stacksize for task 23: unlimited
  | Maximum stacksize for task 24: unlimited
  | Maximum stacksize for task 25: unlimited
  | Maximum stacksize for task 26: unlimited
  | Maximum stacksize for task 27: unlimited
  | Maximum stacksize for task 28: unlimited
  | Maximum stacksize for task 29: unlimited
  | Maximum stacksize for task 30: unlimited
  | Maximum stacksize for task 31: unlimited
  | Maximum stacksize for task 32: unlimited
  | Maximum stacksize for task 33: unlimited
  | Maximum stacksize for task 34: unlimited
  | Maximum stacksize for task 35: unlimited
  | Maximum stacksize for task 36: unlimited
  | Maximum stacksize for task 37: unlimited
  | Maximum stacksize for task 38: unlimited
  | Maximum stacksize for task 39: unlimited
  | Maximum stacksize for task 40: unlimited
  | Maximum stacksize for task 41: unlimited
  | Maximum stacksize for task 42: unlimited
  | Maximum stacksize for task 43: unlimited
  | Maximum stacksize for task 44: unlimited
  | Maximum stacksize for task 45: unlimited
  | Maximum stacksize for task 46: unlimited
  | Maximum stacksize for task 47: unlimited
  | Maximum stacksize for task 48: unlimited
  | Maximum stacksize for task 49: unlimited
  | Maximum stacksize for task 50: unlimited
  | Maximum stacksize for task 51: unlimited
  | Maximum stacksize for task 52: unlimited
  | Maximum stacksize for task 53: unlimited
  | Maximum stacksize for task 54: unlimited
  | Maximum stacksize for task 55: unlimited
  | Maximum stacksize for task 56: unlimited
  | Maximum stacksize for task 57: unlimited
  | Maximum stacksize for task 58: unlimited
  | Maximum stacksize for task 59: unlimited
  | Maximum stacksize for task 60: unlimited
  | Maximum stacksize for task 61: unlimited
  | Maximum stacksize for task 62: unlimited
  | Maximum stacksize for task 63: unlimited
  | Maximum stacksize for task 64: unlimited
  | Maximum stacksize for task 65: unlimited
  | Maximum stacksize for task 66: unlimited
  | Maximum stacksize for task 67: unlimited
  | Maximum stacksize for task 68: unlimited
  | Maximum stacksize for task 69: unlimited
  | Maximum stacksize for task 70: unlimited
  | Maximum stacksize for task 71: unlimited
  | Maximum stacksize for task 72: unlimited
  | Maximum stacksize for task 73: unlimited
  | Maximum stacksize for task 74: unlimited
  | Maximum stacksize for task 75: unlimited
  | Maximum stacksize for task 76: unlimited
  | Maximum stacksize for task 77: unlimited
  | Maximum stacksize for task 78: unlimited
  | Maximum stacksize for task 79: unlimited
  | Maximum stacksize for task 80: unlimited
  | Maximum stacksize for task 81: unlimited
  | Maximum stacksize for task 82: unlimited
  | Maximum stacksize for task 83: unlimited
  | Maximum stacksize for task 84: unlimited
  | Maximum stacksize for task 85: unlimited
  | Maximum stacksize for task 86: unlimited
  | Maximum stacksize for task 87: unlimited
  | Maximum stacksize for task 88: unlimited
  | Maximum stacksize for task 89: unlimited
  | Maximum stacksize for task 90: unlimited
  | Maximum stacksize for task 91: unlimited
  | Maximum stacksize for task 92: unlimited
  | Maximum stacksize for task 93: unlimited
  | Maximum stacksize for task 94: unlimited
  | Maximum stacksize for task 95: unlimited
  | Maximum stacksize for task 96: unlimited
  | Maximum stacksize for task 97: unlimited
  | Maximum stacksize for task 98: unlimited
  | Maximum stacksize for task 99: unlimited
  | Maximum stacksize for task 100: unlimited
  | Maximum stacksize for task 101: unlimited
  | Maximum stacksize for task 102: unlimited
  | Maximum stacksize for task 103: unlimited
  | Maximum stacksize for task 104: unlimited
  | Maximum stacksize for task 105: unlimited
  | Maximum stacksize for task 106: unlimited
  | Maximum stacksize for task 107: unlimited
  | Maximum stacksize for task 108: unlimited
  | Maximum stacksize for task 109: unlimited
  | Maximum stacksize for task 110: unlimited
  | Maximum stacksize for task 111: unlimited
  | Maximum stacksize for task 112: unlimited
  | Maximum stacksize for task 113: unlimited
  | Maximum stacksize for task 114: unlimited
  | Maximum stacksize for task 115: unlimited
  | Maximum stacksize for task 116: unlimited
  | Maximum stacksize for task 117: unlimited
  | Maximum stacksize for task 118: unlimited
  | Maximum stacksize for task 119: unlimited
  | Maximum stacksize for task 120: unlimited
  | Maximum stacksize for task 121: unlimited
  | Maximum stacksize for task 122: unlimited
  | Maximum stacksize for task 123: unlimited
  | Maximum stacksize for task 124: unlimited
  | Maximum stacksize for task 125: unlimited
  | Maximum stacksize for task 126: unlimited
  | Maximum stacksize for task 127: unlimited
  | Current stacksize for task 0: unlimited
  | Current stacksize for task 1: unlimited
  | Current stacksize for task 2: unlimited
  | Current stacksize for task 3: unlimited
  | Current stacksize for task 4: unlimited
  | Current stacksize for task 5: unlimited
  | Current stacksize for task 6: unlimited
  | Current stacksize for task 7: unlimited
  | Current stacksize for task 8: unlimited
  | Current stacksize for task 9: unlimited
  | Current stacksize for task 10: unlimited
  | Current stacksize for task 11: unlimited
  | Current stacksize for task 12: unlimited
  | Current stacksize for task 13: unlimited
  | Current stacksize for task 14: unlimited
  | Current stacksize for task 15: unlimited
  | Current stacksize for task 16: unlimited
  | Current stacksize for task 17: unlimited
  | Current stacksize for task 18: unlimited
  | Current stacksize for task 19: unlimited
  | Current stacksize for task 20: unlimited
  | Current stacksize for task 21: unlimited
  | Current stacksize for task 22: unlimited
  | Current stacksize for task 23: unlimited
  | Current stacksize for task 24: unlimited
  | Current stacksize for task 25: unlimited
  | Current stacksize for task 26: unlimited
  | Current stacksize for task 27: unlimited
  | Current stacksize for task 28: unlimited
  | Current stacksize for task 29: unlimited
  | Current stacksize for task 30: unlimited
  | Current stacksize for task 31: unlimited
  | Current stacksize for task 32: unlimited
  | Current stacksize for task 33: unlimited
  | Current stacksize for task 34: unlimited
  | Current stacksize for task 35: unlimited
  | Current stacksize for task 36: unlimited
  | Current stacksize for task 37: unlimited
  | Current stacksize for task 38: unlimited
  | Current stacksize for task 39: unlimited
  | Current stacksize for task 40: unlimited
  | Current stacksize for task 41: unlimited
  | Current stacksize for task 42: unlimited
  | Current stacksize for task 43: unlimited
  | Current stacksize for task 44: unlimited
  | Current stacksize for task 45: unlimited
  | Current stacksize for task 46: unlimited
  | Current stacksize for task 47: unlimited
  | Current stacksize for task 48: unlimited
  | Current stacksize for task 49: unlimited
  | Current stacksize for task 50: unlimited
  | Current stacksize for task 51: unlimited
  | Current stacksize for task 52: unlimited
  | Current stacksize for task 53: unlimited
  | Current stacksize for task 54: unlimited
  | Current stacksize for task 55: unlimited
  | Current stacksize for task 56: unlimited
  | Current stacksize for task 57: unlimited
  | Current stacksize for task 58: unlimited
  | Current stacksize for task 59: unlimited
  | Current stacksize for task 60: unlimited
  | Current stacksize for task 61: unlimited
  | Current stacksize for task 62: unlimited
  | Current stacksize for task 63: unlimited
  | Current stacksize for task 64: unlimited
  | Current stacksize for task 65: unlimited
  | Current stacksize for task 66: unlimited
  | Current stacksize for task 67: unlimited
  | Current stacksize for task 68: unlimited
  | Current stacksize for task 69: unlimited
  | Current stacksize for task 70: unlimited
  | Current stacksize for task 71: unlimited
  | Current stacksize for task 72: unlimited
  | Current stacksize for task 73: unlimited
  | Current stacksize for task 74: unlimited
  | Current stacksize for task 75: unlimited
  | Current stacksize for task 76: unlimited
  | Current stacksize for task 77: unlimited
  | Current stacksize for task 78: unlimited
  | Current stacksize for task 79: unlimited
  | Current stacksize for task 80: unlimited
  | Current stacksize for task 81: unlimited
  | Current stacksize for task 82: unlimited
  | Current stacksize for task 83: unlimited
  | Current stacksize for task 84: unlimited
  | Current stacksize for task 85: unlimited
  | Current stacksize for task 86: unlimited
  | Current stacksize for task 87: unlimited
  | Current stacksize for task 88: unlimited
  | Current stacksize for task 89: unlimited
  | Current stacksize for task 90: unlimited
  | Current stacksize for task 91: unlimited
  | Current stacksize for task 92: unlimited
  | Current stacksize for task 93: unlimited
  | Current stacksize for task 94: unlimited
  | Current stacksize for task 95: unlimited
  | Current stacksize for task 96: unlimited
  | Current stacksize for task 97: unlimited
  | Current stacksize for task 98: unlimited
  | Current stacksize for task 99: unlimited
  | Current stacksize for task 100: unlimited
  | Current stacksize for task 101: unlimited
  | Current stacksize for task 102: unlimited
  | Current stacksize for task 103: unlimited
  | Current stacksize for task 104: unlimited
  | Current stacksize for task 105: unlimited
  | Current stacksize for task 106: unlimited
  | Current stacksize for task 107: unlimited
  | Current stacksize for task 108: unlimited
  | Current stacksize for task 109: unlimited
  | Current stacksize for task 110: unlimited
  | Current stacksize for task 111: unlimited
  | Current stacksize for task 112: unlimited
  | Current stacksize for task 113: unlimited
  | Current stacksize for task 114: unlimited
  | Current stacksize for task 115: unlimited
  | Current stacksize for task 116: unlimited
  | Current stacksize for task 117: unlimited
  | Current stacksize for task 118: unlimited
  | Current stacksize for task 119: unlimited
  | Current stacksize for task 120: unlimited
  | Current stacksize for task 121: unlimited
  | Current stacksize for task 122: unlimited
  | Current stacksize for task 123: unlimited
  | Current stacksize for task 124: unlimited
  | Current stacksize for task 125: unlimited
  | Current stacksize for task 126: unlimited
  | Current stacksize for task 127: unlimited
 
  Consistency checks for the contents of control.in are next.
 
  MPI_IN_PLACE appears to work with this MPI implementation.
  | Keeping use_mpi_in_place .true. (see manual).
  Target number of points in a grid batch is not set. Defaulting to  100
  Method for grid partitioning is not set. Defaulting to parallel hash+maxmin partitioning.
  Batch size limit is not set. Defaulting to    200
  By default, will store active basis functions for each batch.
  If in need of memory, prune_basis_once .false. can be used to disable this option.
  communication_type for Hartree potential was not specified.
  Defaulting to calc_hartree .
  Defaulting to Pulay charge density mixer.
  Pulay mixer: Number of relevant iterations not set.
  Defaulting to    8 iterations.
  Pulay mixer: Number of initial linear mixing iterations not set.
  Defaulting to    0 iterations.
  Work space size for distributed Hartree potential not set.
  Defaulting to   0.200000E+03 MB.
  Mixing parameter for charge density mixing has not been set.
  Using default: charge_mix_param =     0.0500.
  The mixing parameter will be adjusted in iteration number     2 of each s.c.f. cycle (i.e., each geometry step).
  Algorithm-dependent basis array size parameters:
  | n_max_pulay                         :        8
  Maximum number of self-consistency iterations not provided.
  Presetting  1000 iterations.
  Presetting      1001 iterations before the initial mixing cycle
  is restarted anyway using the sc_init_iter criterion / keyword.
  Presetting a factor      1.000 between actual scf density residual
  and density convergence criterion sc_accuracy_rho below which sc_init_iter
  takes no effect.
 * No s.c.f. convergence criteria (sc_accuracy_*) were provided in control.in.
 * The run will proceed with a reasonable default guess, but please check whether.
 * the s.c.f. cycles seem to take too much or too little time.
  Calculation of forces was not defined in control.in. No forces will be calculated.
  Geometry relaxation not requested: no relaxation will be performed.
 * Notice: The s.c.f. convergence criterion sc_accuracy_rho was not provided.
 * We used to stop in this case, and ask the user to provide reasonable
 * scf convergence criteria. However, this led some users to employ criteria
 * that led to extremely long run times, e.g., for simple relaxation.
 * We now preset a default value for sc_accuracy_rho if it is not set.
 * You may still wish to check if this setting is too tight or too loose for your needs.
 * Based on n_atoms and forces and force-correction status, FHI-aims chose sc_accuracy_rho =  0.519615E-05 .
  No accuracy limit for integral partition fn. given. Defaulting to  0.1000E-14.
  No threshold value for u(r) in integrations given. Defaulting to  0.1000E-05.
  No occupation type (smearing scheme) given. Defaulting to Gaussian broadening, width =  0.1000E-01 eV.
  The width will be adjusted in iteration number     2 of each s.c.f. cycle (i.e., each geometry step).
  No accuracy for occupation numbers given. Defaulting to  0.1000E-12.
  No threshold value for occupation numbers given. Defaulting to  0.0000E+00.
  No accuracy for fermi level given. Defaulting to  0.1000E-19.
  Maximum # of iterations to find E_F not set. Defaulting to  200.
  Preferred method for the eigenvalue solver ('KS_method') not specified in 'control.in'.
  Calling BLACS routine to test compilation state
  Since ScaLAPACK support is enabled, defaulting to ELPA (via ELSI).
  Will not use alltoall communication since running on < 1024 CPUs.
  Threshold for basis singularities not set.
  Default threshold for basis singularities:  0.1000E-04
  partition_type (choice of integration weights) for integrals was not specified.
  | Using a version of the partition function of Stratmann and coworkers ('stratmann_sparse').
  | At each grid point, the set of atoms used to build the partition table is smoothly restricted to
  | only those atoms whose free-atom density would be non-zero at that grid point.
  Partitioning for Hartree potential was not defined. Using partition_type for integrals.
  | Adjusted default value of keyword multip_moments_threshold to:       0.10000000E-11
  | This value may affect high angular momentum components of the Hartree potential in periodic systems.
  Spin handling was not defined in control.in. Defaulting to unpolarized case.
  No q(lm)/r^(l+1) cutoff set for long-range Hartree potential.
  | Using default value of  0.100000E-09 .
  | Verify using the multipole_threshold keyword.
  Defaulting to new monopole extrapolation.
  Density update method: automatic selection selected.
  Using density matrix based charge density update.
  Using density matrix based charge density update.
  Using packed matrix style: index .
  Defaulting to use time-reversal symmetry for k-point grid.
  Charge integration errors on the 3D integration grid will be compensated
  by explicit normalization and distribution of residual charges.
  Use the "compensate_multipole_errors" flag to change this behaviour.
  Found no potential conflicts with setting 'use_local_index' for this calculation.
  Flag 'use_local_index' has not been set.
  Testing whether we classify this calculation as large-scale ...
  The calculation contains at least 100 atoms. This is most likely a large-scale calculation.
  Setting 'use_local_index' to .true.
 
  Consistency checks for the contents of geometry.in are next.
 

  Range separation radius for Ewald summation (hartree_convergence_parameter):      3.05697892 bohr.
  Number of empty states per atom not set in control.in - providing a guess from actual geometry.
  | Total number of empty states used during s.c.f. cycle:      621
  If you use a very high smearing, use empty_states (per atom!) in control.in to increase this value.

  Structure-dependent array size parameters: 
  | Maximum number of distinct radial functions  :       17
  | Maximum number of basis functions            :     3186
  | Number of Kohn-Sham states (occupied + empty):     1647
------------------------------------------------------------
  After read_input_data [GB]:   1038.04

  Performing system and environment tests:
  *** Environment variable OMP_NUM_THREADS is not set
  *** For performance reasons you might want to set it to 1
  | Checking for ScaLAPACK...
  | Testing pdtran()...
  | All pdtran() tests passed.
  After prepare_system [GB]:   1038.02

------------------------------------------------------------
          Preparing all fixed parts of the calculation.
------------------------------------------------------------
  Determining machine precision:
    2.225073858507201E-308
  Setting up grids for atomic and cluster calculations.

  Creating wave function, potential, and density for free atoms.
  Runtime choices for atomic solver:
  | atomic solver xc        : PBE
  | compute density gradient: 1
  | compute kinetic density : F

  Species: Ti

  List of occupied orbitals and eigenvalues:
    n    l              occ      energy [Ha]    energy [eV]
    1    0           2.0000      -179.959082     -4896.9358
    2    0           2.0000       -19.727662      -536.8170
    3    0           2.0000        -2.283029       -62.1244
    4    0           2.0000        -0.148384        -4.0377
    2    1           6.0000       -16.317278      -444.0157
    3    1           6.0000        -1.409348       -38.3503
    3    2           2.0000        -0.139340        -3.7916


  Species: O

  List of occupied orbitals and eigenvalues:
    n    l              occ      energy [Ha]    energy [eV]
    1    0           2.0000       -18.926989      -515.0296
    2    0           2.0000        -0.880247       -23.9527
    2    1           4.0000        -0.331514        -9.0210


  Adding cutoff potential to free-atom effective potential.
  Creating fixed part of basis set: Ionic, confined, hydrogenic.
 
  Ti                   ion:

  List of free ionic orbitals and eigenvalues:
    n    l      energy [Ha]    energy [eV]
    1    0      -180.819616     -4920.3521
    2    0       -20.608761      -560.7929
    3    0        -3.115729       -84.7833
    4    0        -0.697188       -18.9715
    2    1       -17.196209      -467.9327
    3    1        -2.231296       -60.7167
    3    2        -0.911363       -24.7995


  List of ionic basis orbitals and eigenvalues:
    n    l      energy [Ha]    energy [eV]    outer radius [A]
    4    1        -0.517739       -14.0884       4.592117
    4    0        -0.696824       -18.9615       4.536321

 
  Ti                   hydrogenic:
 
  List of hydrogenic basis orbitals: 
    n    l      effective z      eigenvalue [eV]  inner max. [A]     outer max. [A]     outer radius [A]   
    4    3         8.000000       -54.4222           1.059019           1.059019           4.267343
    3    2         2.700000       -10.7798           1.726925           1.726925           4.592117
 
 
  O                    hydrogenic:
 
  List of hydrogenic basis orbitals: 
    n    l      effective z      eigenvalue [eV]  inner max. [A]     outer max. [A]     outer radius [A]   
    2    1         1.800000       -10.9749           1.164242           1.164242           4.578029
    3    2         7.600000       -87.3180           0.624125           0.624125           3.251020
    3    0         6.400000       -61.9207           0.061167           1.081902           4.001998
 
  Creating atomic-like basis functions for current effective potential.

  Species Ti                  :

  List of atomic basis orbitals and eigenvalues:
    n    l      energy [Ha]    energy [eV]    outer radius [A]
    1    0      -179.959082     -4896.9358       0.490254
    2    0       -19.727662      -536.8170       1.491292
    3    0        -2.283029       -62.1244       4.014314
    4    0        -0.148384        -4.0377       4.592117
    2    1       -16.317278      -444.0157       1.585290
    3    1        -1.409348       -38.3503       4.267343
    3    2        -0.139340        -3.7916       4.536321


  Species O                   :

  List of atomic basis orbitals and eigenvalues:
    n    l      energy [Ha]    energy [eV]    outer radius [A]
    1    0       -18.926989      -515.0296       1.415765
    2    0        -0.880247       -23.9527       4.413171
    2    1        -0.331514        -9.0210       4.522403

  Assembling full basis from fixed parts.
  | Species Ti :   atomic orbital   1 s accepted.
  | Species Ti :   atomic orbital   2 s accepted.
  | Species Ti :   atomic orbital   3 s accepted.
  | Species Ti :    ionic orbital   4 s accepted.
  | Species Ti :   atomic orbital   4 s accepted.
  | Species Ti :   atomic orbital   2 p accepted.
  | Species Ti :   atomic orbital   3 p accepted.
  | Species Ti :    ionic orbital   4 p accepted.
  | Species Ti :   atomic orbital   3 d accepted.
  | Species Ti :    hydro orbital   3 d accepted.
  | Species Ti :    hydro orbital   4 f accepted.
  | Species O :   atomic orbital   1 s accepted.
  | Species O :    hydro orbital   3 s accepted.
  | Species O :   atomic orbital   2 s accepted.
  | Species O :   atomic orbital   2 p accepted.
  | Species O :    hydro orbital   2 p accepted.
  | Species O :    hydro orbital   3 d accepted.
 
  Basis size parameters after reduction:
  | Total number of radial functions:       17
  | Total number of basis functions :     3186
 
  Per-task memory consumption for arrays in subroutine allocate_ext:
  |           6.095944MB.
  Testing on-site integration grid accuracy.
  |  Species  Function  <phi|h_atom|phi> (log., in eV)  <phi|h_atom|phi> (rad., in eV)
           1        1              -4896.9357674450              -4896.9322830202
           1        2               -536.8170048508               -536.8169722333
           1        3                -62.1243896260                -62.1243889283
           1        4                 -3.2653235630                 -3.2692838808
           1        5                  6.7987747276                  6.5460721883 ***
           1        6               -444.0157161949               -444.0157165810
           1        7                -38.3503235548                -38.3503234963
           1        8                  0.2923930877                  0.2745948116
           1        9                 -3.7933400649                 -3.7959244177
           1       10                  6.3288803616                  6.2510614929 ***
           1       11                 27.8451455747                 27.8452636416
           2       12               -515.0295626295               -515.0294562738
           2       13                 15.1698434419                 15.1699322204
           2       14                -21.6038822678                -21.6039118105
           2       15                 -9.0211123393                 -9.0212703513
           2       16                  8.3047696391                  8.2854840999
           2       17                 45.8428042125                 45.8427461222
 * Note: Onsite integrals marked "***" above are less accurate than
[...]
  |    27        8.624800       -0.624800        3.847990        4.766930        0.009880
  |    28        8.624801       -0.624801        3.847989        4.766931        0.009880
  |    29        8.624788       -0.624788        3.847980        4.766927        0.009882
  |    30        8.624787       -0.624787        3.847979        4.766926        0.009882
  |    31       20.750382        1.249618        5.962817       12.508619        2.133942        0.145005
  |    32       20.750442        1.249558        5.962812       12.508634        2.133983        0.145013
  |    33        8.624800       -0.624800        3.847990        4.766930        0.009880
  |    34        8.624801       -0.624801        3.847989        4.766931        0.009880
  |    35        8.624786       -0.624786        3.847979        4.766924        0.009882
  |    36        8.624785       -0.624785        3.847978        4.766924        0.009882
  |    37       20.750381        1.249619        5.962818       12.508618        2.133940        0.145004
  |    38       20.750441        1.249559        5.962813       12.508634        2.133982        0.145013
  |    39        8.624803       -0.624803        3.847990        4.766933        0.009880
  |    40        8.624803       -0.624803        3.847990        4.766933        0.009880
  |    41        8.624788       -0.624788        3.847980        4.766926        0.009882
  |    42        8.624786       -0.624786        3.847978        4.766926        0.009883
  |    43       20.750382        1.249618        5.962817       12.508619        2.133942        0.145005
  |    44       20.750439        1.249561        5.962814       12.508633        2.133980        0.145012
  |    45        8.624801       -0.624801        3.847990        4.766931        0.009880
  |    46        8.624801       -0.624801        3.847990        4.766931        0.009880
  |    47        8.624790       -0.624790        3.847980        4.766928        0.009882
  |    48        8.624788       -0.624788        3.847978        4.766928        0.009882
  |    49       20.750382        1.249618        5.962817       12.508619        2.133942        0.145005
  |    50       20.750441        1.249559        5.962813       12.508634        2.133982        0.145013
  |    51        8.624801       -0.624801        3.847990        4.766931        0.009880
  |    52        8.624801       -0.624801        3.847990        4.766931        0.009880
  |    53        8.624788       -0.624788        3.847980        4.766926        0.009882
  |    54        8.624786       -0.624786        3.847978        4.766926        0.009883
  |    55       20.750381        1.249619        5.962818       12.508618        2.133940        0.145004
  |    56       20.750442        1.249558        5.962812       12.508634        2.133983        0.145013
  |    57        8.624803       -0.624803        3.847991        4.766932        0.009880
  |    58        8.624803       -0.624803        3.847990        4.766934        0.009880
  |    59        8.624785       -0.624785        3.847978        4.766924        0.009882
  |    60        8.624786       -0.624786        3.847979        4.766924        0.009882
  |    61       20.750382        1.249618        5.962817       12.508619        2.133942        0.145005
  |    62       20.750440        1.249560        5.962813       12.508634        2.133981        0.145012
  |    63        8.624800       -0.624800        3.847990        4.766930        0.009880
  |    64        8.624801       -0.624801        3.847989        4.766931        0.009880
  |    65        8.624787       -0.624787        3.847979        4.766926        0.009882
  |    66        8.624788       -0.624788        3.847980        4.766927        0.009882
  |    67       20.750382        1.249618        5.962817       12.508619        2.133942        0.145005
  |    68       20.750442        1.249558        5.962812       12.508634        2.133983        0.145013
  |    69        8.624800       -0.624800        3.847990        4.766930        0.009880
  |    70        8.624801       -0.624801        3.847989        4.766931        0.009880
  |    71        8.624785       -0.624785        3.847978        4.766924        0.009882
  |    72        8.624786       -0.624786        3.847979        4.766924        0.009882
  |    73       20.750381        1.249619        5.962818       12.508619        2.133940        0.145004
  |    74       20.750443        1.249557        5.962812       12.508635        2.133984        0.145014
  |    75        8.624803       -0.624803        3.847991        4.766932        0.009880
  |    76        8.624803       -0.624803        3.847991        4.766932        0.009880
  |    77        8.624784       -0.624784        3.847979        4.766923        0.009882
  |    78        8.624784       -0.624784        3.847979        4.766923        0.009882
  |    79       20.750383        1.249617        5.962817       12.508619        2.133942        0.145005
  |    80       20.750441        1.249559        5.962813       12.508634        2.133982        0.145013
  |    81        8.624801       -0.624801        3.847990        4.766930        0.009880
  |    82        8.624801       -0.624801        3.847990        4.766930        0.009880
  |    83        8.624787       -0.624787        3.847979        4.766925        0.009882
  |    84        8.624787       -0.624787        3.847979        4.766925        0.009882
  |    85       20.750383        1.249617        5.962817       12.508619        2.133942        0.145005
  |    86       20.750443        1.249557        5.962812       12.508635        2.133984        0.145014
  |    87        8.624801       -0.624801        3.847990        4.766930        0.009880
  |    88        8.624801       -0.624801        3.847990        4.766930        0.009880
  |    89        8.624784       -0.624784        3.847979        4.766923        0.009882
  |    90        8.624784       -0.624784        3.847979        4.766923        0.009882
  |    91       20.750381        1.249619        5.962818       12.508619        2.133940        0.145004
  |    92       20.750442        1.249558        5.962812       12.508634        2.133983        0.145013
  |    93        8.624803       -0.624803        3.847990        4.766934        0.009880
  |    94        8.624803       -0.624803        3.847991        4.766932        0.009880
  |    95        8.624786       -0.624786        3.847979        4.766924        0.009882
  |    96        8.624785       -0.624785        3.847978        4.766924        0.009882
  |    97       20.750383        1.249617        5.962817       12.508619        2.133942        0.145005
  |    98       20.750440        1.249560        5.962813       12.508634        2.133981        0.145012
  |    99        8.624801       -0.624801        3.847989        4.766931        0.009880
  |   100        8.624800       -0.624800        3.847990        4.766930        0.009880
  |   101        8.624788       -0.624788        3.847980        4.766927        0.009882
  |   102        8.624787       -0.624787        3.847979        4.766926        0.009882
  |   103       20.750383        1.249617        5.962817       12.508619        2.133942        0.145005
  |   104       20.750442        1.249558        5.962812       12.508634        2.133983        0.145013
  |   105        8.624801       -0.624801        3.847989        4.766931        0.009880
  |   106        8.624800       -0.624800        3.847990        4.766930        0.009880
  |   107        8.624786       -0.624786        3.847979        4.766924        0.009882
  |   108        8.624785       -0.624785        3.847978        4.766924        0.009882
  |   109       20.750381        1.249619        5.962818       12.508618        2.133940        0.145004
  |   110       20.750441        1.249559        5.962813       12.508634        2.133982        0.145013
  |   111        8.624803       -0.624803        3.847990        4.766933        0.009880
  |   112        8.624803       -0.624803        3.847990        4.766933        0.009880
  |   113        8.624786       -0.624786        3.847978        4.766926        0.009883
  |   114        8.624788       -0.624788        3.847980        4.766926        0.009882
  |   115       20.750382        1.249618        5.962817       12.508619        2.133942        0.145005
  |   116       20.750439        1.249561        5.962814       12.508633        2.133980        0.145012
  |   117        8.624801       -0.624801        3.847990        4.766931        0.009880
  |   118        8.624801       -0.624801        3.847990        4.766931        0.009880
  |   119        8.624788       -0.624788        3.847978        4.766928        0.009882
  |   120        8.624790       -0.624790        3.847980        4.766928        0.009882
  |   121       20.750382        1.249618        5.962817       12.508619        2.133942        0.145005
  |   122       20.750441        1.249559        5.962813       12.508634        2.133982        0.145013
  |   123        8.624801       -0.624801        3.847990        4.766931        0.009880
  |   124        8.624801       -0.624801        3.847990        4.766931        0.009880
  |   125        8.624786       -0.624786        3.847978        4.766926        0.009883
  |   126        8.624788       -0.624788        3.847980        4.766926        0.009882
  |   127       20.750381        1.249619        5.962818       12.508619        2.133940        0.145004
  |   128       20.750442        1.249558        5.962812       12.508634        2.133983        0.145013
  |   129        8.624803       -0.624803        3.847990        4.766934        0.009880
  |   130        8.624803       -0.624803        3.847991        4.766932        0.009880
  |   131        8.624785       -0.624785        3.847978        4.766924        0.009882
  |   132        8.624786       -0.624786        3.847979        4.766924        0.009882
  |   133       20.750383        1.249617        5.962817       12.508619        2.133942        0.145005
  |   134       20.750440        1.249560        5.962813       12.508634        2.133981        0.145012
  |   135        8.624801       -0.624801        3.847989        4.766931        0.009880
  |   136        8.624800       -0.624800        3.847990        4.766930        0.009880
  |   137        8.624787       -0.624787        3.847979        4.766926        0.009882
  |   138        8.624788       -0.624788        3.847980        4.766927        0.009882
  |   139       20.750383        1.249617        5.962817       12.508619        2.133942        0.145005
  |   140       20.750442        1.249558        5.962812       12.508634        2.133983        0.145013
  |   141        8.624801       -0.624801        3.847989        4.766931        0.009880
  |   142        8.624800       -0.624800        3.847990        4.766930        0.009880
  |   143        8.624785       -0.624785        3.847978        4.766924        0.009882
  |   144        8.624786       -0.624786        3.847979        4.766924        0.009882
  |   145       20.750381        1.249619        5.962818       12.508619        2.133940        0.145004
  |   146       20.750441        1.249559        5.962813       12.508634        2.133982        0.145013
  |   147        8.624804       -0.624804        3.847989        4.766935        0.009880
  |   148        8.624803       -0.624803        3.847991        4.766932        0.009880
  |   149        8.624787       -0.624787        3.847979        4.766926        0.009882
  |   150        8.624787       -0.624787        3.847979        4.766926        0.009882
  |   151       20.750383        1.249617        5.962817       12.508619        2.133942        0.145005
  |   152       20.750439        1.249561        5.962814       12.508633        2.133980        0.145012
  |   153        8.624802       -0.624802        3.847989        4.766933        0.009880
  |   154        8.624800       -0.624800        3.847991        4.766930        0.009880
  |   155        8.624789       -0.624789        3.847979        4.766928        0.009882
  |   156        8.624789       -0.624789        3.847979        4.766928        0.009882
  |   157       20.750383        1.249617        5.962817       12.508619        2.133942        0.145005
  |   158       20.750441        1.249559        5.962813       12.508634        2.133982        0.145013
  |   159        8.624802       -0.624802        3.847989        4.766933        0.009880
  |   160        8.624800       -0.624800        3.847991        4.766930        0.009880
  |   161        8.624787       -0.624787        3.847979        4.766926        0.009882
  |   162        8.624787       -0.624787        3.847979        4.766926        0.009882
  |
  | Total     2052.000000        0.000000
 
  Writing Mulliken decomposition to disk ...

  Mulliken analysis                                       :  max(cpu_time)    wall_clock(cpu1)
  | Time for Mulliken analysis                            :         16.408              16.429
  | Total time for Mulliken analysis                      :         16.408              16.429
------------------------------------------------------------

------------------------------------------------------------------------------
  Final output of selected total energy values:

  The following output summarizes some interesting total energy values
  at the end of a run (AFTER all relaxation, molecular dynamics, etc.).

  | Total energy of the DFT / Hartree-Fock s.c.f. calculation      :       -1479625.205539077 eV
  | Final zero-broadening corrected energy (caution - metals only) :       -1479625.205539077 eV
  | For reference only, the value of 1 Hartree used in FHI-aims is :             27.211384500 eV
  | For reference only, the overall average (free atom contribution
  | + realspace contribution) of the electrostatic potential after
  | s.c.f. convergence is                                          :            -17.020810408 eV

  Before relying on these values, please be sure to understand exactly which
  total energy value is referred to by a given number. Different objects may
  all carry the same name 'total energy'. Definitions:

  Total energy of the DFT / Hartree-Fock s.c.f. calculation:
  | Note that this energy does not include ANY quantities calculated after the
  | s.c.f. cycle, in particular not ANY RPA, MP2, etc. many-body perturbation terms.

  Final zero-broadening corrected energy:
  | For metallic systems only, a broadening of the occupation numbers at the Fermi
  | level can be extrapolated back to zero broadening by an electron-gas inspired
  | formula. For all systems that are not real metals, this value can be
  | meaningless and should be avoided.

------------------------------------------------------------------------------
  Methods described in the following list of references were used in this FHI-aims run.
  If you publish the results, please make sure to cite these reference if they apply.
  FHI-aims is an academic code, and for our developers (often, Ph.D. students
  and postdocs), scientific credit in the community is essential.
  Thank you for helping us!

  For any use of FHI-aims, please cite:

    Volker Blum, Ralf Gehrke, Felix Hanke, Paula Havu, Ville Havu,
    Xinguo Ren, Karsten Reuter, and Matthias Scheffler
    'Ab initio molecular simulations with numeric atom-centered orbitals'
    Computer Physics Communications 180, 2175-2196 (2009)
    http://doi.org/10.1016/j.cpc.2009.06.022


  The provided symmetry information was generated with SPGlib:

    Atsushi Togo, Yusuke Seto, Dimitar Pashov
    SPGlib 1.7.3 obtained from http://spglib.sourceforge.net
    Licence: New BSD license
    Copyright (C) 2008 Atsushi Togo


  The ELSI infrastructure was used in your run to solve the Kohn-Sham electronic structure.
  Please check out https://wordpress.elsi-interchange.org to learn more.
  If scalability is important for your project, please acknowledge ELSI by citing:

    V. W-z. Yu, F. Corsetti, A. Garcia, W. P. Huhn, M. Jacquelin, W. Jia,
    B. Lange, L. Lin, J. Lu, W. Mi, A. Seifitokaldani, A. Vazquez-Mayagoitia,
    C. Yang, H. Yang, and V. Blum
    'ELSI: A unified software interface for Kohn-Sham electronic structure solvers'
    Computer Physics Communications 222, 267-285 (2018).
    http://doi.org/10.1016/j.cpc.2017.09.007


  For the real-space grid partitioning and parallelization used in this calculation, please cite:

    Ville Havu, Volker Blum, Paula Havu, and Matthias Scheffler,
    'Efficient O(N) integration for all-electron electronic structure calculation'
    'using numerically tabulated basis functions'
    Journal of Computational Physics 228, 8367-8379 (2009).
    http://doi.org/10.1016/j.jcp.2009.08.008

  Of course, there are many other important community references, e.g., those cited in the
  above references. Our list is limited to references that describe implementations in the
  FHI-aims code. The reason is purely practical (length of this list) - please credit others as well.

------------------------------------------------------------
          Leaving FHI-aims.
          Date     :  20240925, Time     :  152503.575

          Computational steps:
          | Number of self-consistency cycles          :           19
          | Number of SCF (re)initializations          :            1

          Detailed time accounting                     :  max(cpu_time)    wall_clock(cpu1)
          | Total time                                  :      322.613 s         322.683 s
          | Preparation time                            :        0.343 s           0.342 s
          | Boundary condition initalization            :        0.093 s           0.093 s
          | Grid partitioning                           :        0.364 s           0.370 s
          | Preloading free-atom quantities on grid     :        0.708 s           0.711 s
          | Free-atom superposition energy              :        0.107 s           0.107 s
          | Total time for integrations                 :       19.826 s          19.831 s
          | Total time for solution of K.-S. equations  :      212.471 s         212.433 s
          | Total time for density update               :       63.460 s          63.465 s
          | Total time for mixing                       :        0.090 s           0.104 s
          | Total time for Hartree multipole update     :        0.292 s           0.292 s
          | Total time for Hartree multipole sum        :        5.325 s           5.326 s
          | Total time for total energy evaluation      :        0.030 s           0.032 s
          | Total time for scaled ZORA corrections      :        0.000 s           0.000 s
          | Total time for Mulliken analysis            :       16.429 s          16.429 s

          Partial memory accounting:
          | Residual value for overall tracked memory usage across tasks:     0.000000 MB (should be 0.000000 MB)
          | Peak values for overall tracked memory usage:
          |   Minimum:      128.377 MB (on task   5 after allocating gradient_basis_wave)
          |   Maximum:      154.267 MB (on task  76 after allocating gradient_basis_wave)
          |   Average:      138.864 MB
          | Largest tracked array allocation:
          |   Minimum:       25.556 MB (ovlp_complex on task   5)
          |   Maximum:       31.113 MB (ovlp_complex on task  12)
          |   Average:       27.831 MB
          Note:  These values currently only include a subset of arrays which are explicitly tracked.
          The "true" memory usage will be greater.

          Have a nice day.
------------------------------------------------------------
