------------------------------------------------------------
          Invoking FHI-aims ...

          When using FHI-aims, please cite the following reference:

            Volker Blum, Ralf Gehrke, Felix Hanke, Paula Havu,
            Ville Havu, Xinguo Ren, Karsten Reuter, and Matthias Scheffler,
            'Ab Initio Molecular Simulations with Numeric Atom-Centered Orbitals',
            Computer Physics Communications 180, 2175-2196 (2009)

          In addition, many other developments in FHI-aims are likely important for
          your particular application. If so, please cite them. A partial list of references
          is written at the end of this file. Thank you for giving credit to the authors
          of these developments.

          For general information about FHI-aims please find us at

            https://fhi-aims.org

          Online tutorials can be found at

            https://fhi-aims-club.gitlab.io/tutorials/tutorials-overview/

          For any questions about FHI-aims, please visit our slack channel at

            https://fhi-aims.slack.com

          and our main development and support site at

            https://aims-git.rz-berlin.mpg.de .

          The latter site, in particular, has a wiki to collect information, as well
          as an issue tracker to log discussions, suggest improvements, and report issues
          or bugs. https://aims-git.rz-berlin.mpg.de is also the main development site
          of the project and all new and updated code versions can be obtained there.
          Please send an email to aims-coordinators@fhi-berlin.mpg.de and we will add
          you to these sites. They are for you and everyone is welcome there.

------------------------------------------------------------



  Date     :  20250306, Time     :  150230.095
  Time zero on CPU 1             :   0.423392000000000E+00  s.
  Internal wall clock time zero  :           510505350.095  s.

  FHI-aims created a unique identifier for this run for later identification
  aims_uuid : C814CB09-9889-4399-A8A7-CB64CFE95553

  Build configuration of the current instance of FHI-aims
  -------------------------------------------------------
  FHI-aims version      : 240828
  Commit number         : 34179f313
  CMake host system     : Linux-6.5.0-44-generic
  CMake version         : 3.22.1
  Fortran compiler      : /opt/intel/oneapi/mpi/2021.12/bin/mpiifort (IntelLLVM) version 2024.1.0
  Fortran compiler flags: -fc=ifx -O3 -ip -fp-model precise
  C compiler            : /opt/intel/oneapi/mpi/2021.12/bin/mpiicc (IntelLLVM) version 2024.1.0
  C compiler flags      : -cc=icx -O3 -ip -fp-model precise -std=gnu99
  C++ compiler          : /opt/intel/oneapi/mpi/2021.12/bin/mpiicpc (IntelLLVM) version 2024.1.0
  C++ compiler flags    : -cxx=icpx -O3 -ip -fp-model precise -std=c++11
  HIP compiler          :
  HIP compiler flags    :
  HIP GPU arch          :
  Using MPI
  Using ScaLAPACK
  Using LibXC
  Using i-PI
  Using RLSY
  Linking against: /opt/intel/oneapi/mkl/2024.1/lib/intel64/libmkl_intel_lp64.so
                   /opt/intel/oneapi/mkl/2024.1/lib/intel64/libmkl_sequential.so
                   /opt/intel/oneapi/mkl/2024.1/lib/intel64/libmkl_core.so
                   /opt/intel/oneapi/mkl/2024.1/lib/intel64/libmkl_blacs_intelmpi_lp64.so
                   /opt/intel/oneapi/mkl/2024.1/lib/intel64/libmkl_scalapack_lp64.so
                   /opt/intel/oneapi/mkl/2024.1/lib/intel64/libmkl_core.so

  Using       20 parallel tasks.
  Task        0 on host RSL-arvutus reporting.
  Task        1 on host RSL-arvutus reporting.
  Task        2 on host RSL-arvutus reporting.
  Task        3 on host RSL-arvutus reporting.
  Task        4 on host RSL-arvutus reporting.
  Task        5 on host RSL-arvutus reporting.
  Task        6 on host RSL-arvutus reporting.
  Task        7 on host RSL-arvutus reporting.
  Task        8 on host RSL-arvutus reporting.
  Task        9 on host RSL-arvutus reporting.
  Task       10 on host RSL-arvutus reporting.
  Task       11 on host RSL-arvutus reporting.
  Task       12 on host RSL-arvutus reporting.
  Task       13 on host RSL-arvutus reporting.
  Task       14 on host RSL-arvutus reporting.
  Task       15 on host RSL-arvutus reporting.
  Task       16 on host RSL-arvutus reporting.
  Task       17 on host RSL-arvutus reporting.
  Task       18 on host RSL-arvutus reporting.
  Task       19 on host RSL-arvutus reporting.

  Memory overcommitment is allowed on your operating system.

  Obtaining array dimensions for all initial allocations:
  
  -----------------------------------------------------------------------
  Parsing control.in (first pass over file, find array dimensions only).
  The contents of control.in will be repeated verbatim below
  unless switched off by setting 'verbatim_writeout .false.' .
  in the first line of control.in .
  -----------------------------------------------------------------------
  
    xc               pbe
    relativistic     atomic_zora scalar
    spin             none
  
    relax_geometry   bfgs 5.0e-3
  
  
  ################################################################################
  #
  #  FHI-aims code project
  #  Volker Blum, Fritz Haber Institute Berlin, 2009
  #
  #  Suggested "tight" defaults for H atom (to be pasted into control.in file)
  #
  ################################################################################
    species        H
  #     global species definitions
      nucleus             1
      mass                1.00794
  #
      l_hartree           6
  #
      cut_pot             4.0  2.0  1.0
      basis_dep_cutoff    1e-4
  #
      radial_base         24 7.0
      radial_multiplier   2
      angular_grids       specified
        division   0.1930   50
        division   0.3175  110
        division   0.4293  194
        division   0.5066  302
        division   0.5626  434
  #      division   0.5922  590
  #      division   0.6227  974
  #      division   0.6868 1202
  #      outer_grid  770
        outer_grid  434
  ################################################################################
  #
  #  Definition of "minimal" basis
  #
  ################################################################################
  #     valence basis states
      valence      1  s   1.
  #     ion occupancy
      ion_occ      1  s   0.5
  ################################################################################
  #
  #  Suggested additional basis functions. For production calculations,
  #  uncomment them one after another (the most important basis functions are
  #  listed first).
  #
  #  Basis constructed for dimers: 0.5 A, 0.7 A, 1.0 A, 1.5 A, 2.5 A
  #
  ################################################################################
  #  "First tier" - improvements: -1014.90 meV to -62.69 meV
       hydro 2 s 2.1
       hydro 2 p 3.5
  #  "Second tier" - improvements: -12.89 meV to -1.83 meV
       hydro 1 s 0.85
       hydro 2 p 3.7
       hydro 2 s 1.2
       hydro 3 d 7
  #  "Third tier" - improvements: -0.25 meV to -0.12 meV
  #     hydro 4 f 11.2
  #     hydro 3 p 4.8
  #     hydro 4 d 9
  #     hydro 3 s 3.2
  ################################################################################
  #
  # For methods that use the localized form of the "resolution of identity" for
  # the two-electron Coulomb operator (RI_method LVL), particularly Hartree-Fock and
  # hybrid density functional calculations, the highest accuracy can be obtained by
  # uncommenting the line beginning with "for_aux"  below, thus adding an extra g radial
  # function to the construction of the product basis set for the expansion.
  # See Ref. New J. Phys. 17, 093020 (2015) for more information, particularly Figs. 1 and 6.
  #
  ################################################################################
  #
  # for_aux hydro 5 g 6.0
  
  
  ################################################################################
  #
  #  FHI-aims code project
  #  Volker Blum, Fritz Haber Institute Berlin, 2009
  #
  #  Suggested "tight" defaults for C atom (to be pasted into control.in file)
  #
  ################################################################################
    species        C
  #     global species definitions
      nucleus             6
      mass                12.0107
  #
      l_hartree           6
  #
      cut_pot             4.0  2.0  1.0
      basis_dep_cutoff    1e-4
  #
      radial_base         34 7.0
      radial_multiplier   2
      angular_grids specified
        division   0.2187   50
        division   0.4416  110
        division   0.6335  194
        division   0.7727  302
        division   0.8772  434
  #      division   0.9334  590
  #      division   0.9924  770
  #      division   1.0230  974
  #      division   1.5020 1202
  #     outer_grid  974
        outer_grid  434
  ################################################################################
  #
  #  Definition of "minimal" basis
  #
  ################################################################################
  #     valence basis states
      valence      2  s   2.
      valence      2  p   2.
  #     ion occupancy
      ion_occ      2  s   1.
      ion_occ      2  p   1.
  ################################################################################
  #
  #  Suggested additional basis functions. For production calculations,
  #  uncomment them one after another (the most important basis functions are
  #  listed first).
  #
  #  Constructed for dimers: 1.0 A, 1.25 A, 1.5 A, 2.0 A, 3.0 A
  #
  ################################################################################
  #  "First tier" - improvements: -1214.57 meV to -155.61 meV
       hydro 2 p 1.7
       hydro 3 d 6
       hydro 2 s 4.9
  #  "Second tier" - improvements: -67.75 meV to -5.23 meV
       hydro 4 f 9.8
       hydro 3 p 5.2
       hydro 3 s 4.3
       hydro 5 g 14.4
       hydro 3 d 6.2
  #  "Third tier" - improvements: -2.43 meV to -0.60 meV
  #     hydro 2 p 5.6
  #     hydro 2 s 1.4
  #     hydro 3 d 4.9
  #     hydro 4 f 11.2
  #  "Fourth tier" - improvements: -0.39 meV to -0.18 meV
  #     hydro 2 p 2.1
  #     hydro 5 g 16.4
  #     hydro 4 d 13.2
  #     hydro 3 s 13.6
  #     hydro 4 f 17.6
  #  Further basis functions - improvements: -0.08 meV and below
  #     hydro 3 s 2
  #     hydro 3 p 6
  #     hydro 4 d 20
  ################################################################################
  #
  # For methods that use the localized form of the "resolution of identity" for
  # the two-electron Coulomb operator (RI_method LVL), particularly Hartree-Fock and
  # hybrid density functional calculations, the highest accuracy can be obtained by
  # uncommenting the line beginning with "for_aux"  below, thus adding an extra g radial
  # function to the construction of the product basis set for the expansion.
  # See Ref. New J. Phys. 17, 093020 (2015) for more information, particularly Figs. 1 and 6.
  #
  ################################################################################
  #
  # for_aux hydro 5 g 6.0
  
  
  ################################################################################
  #
  #  FHI-aims code project
  #  Volker Blum, Fritz Haber Institute Berlin, 2009
  #
  #  Suggested "tight" defaults for O atom (to be pasted into control.in file)
  #
  ################################################################################
    species        O
  #     global species definitions
      nucleus             8
      mass                15.9994
  #
      l_hartree           6
  #
      cut_pot             4.0  2.0  1.0
      basis_dep_cutoff    1e-4
  #
      radial_base         36 7.0
      radial_multiplier   2
       angular_grids specified
        division   0.1817   50
        division   0.3417  110
        division   0.4949  194
        division   0.6251  302
        division   0.8014  434
  #      division   0.8507  590
  #      division   0.8762  770
  #      division   0.9023  974
  #      division   1.2339 1202
  #      outer_grid 974
        outer_grid  434
  ################################################################################
  #
  #  Definition of "minimal" basis
  #
  ################################################################################
  #     valence basis states
      valence      2  s   2.
      valence      2  p   4.
  #     ion occupancy
      ion_occ      2  s   1.
      ion_occ      2  p   3.
  ################################################################################
  #
  #  Suggested additional basis functions. For production calculations,
  #  uncomment them one after another (the most important basis functions are
  #  listed first).
  #
  #  Constructed for dimers: 1.0 A, 1.208 A, 1.5 A, 2.0 A, 3.0 A
  #
  ################################################################################
  #  "First tier" - improvements: -699.05 meV to -159.38 meV
       hydro 2 p 1.8
       hydro 3 d 7.6
       hydro 3 s 6.4
  #  "Second tier" - improvements: -49.91 meV to -5.39 meV
       hydro 4 f 11.6
       hydro 3 p 6.2
       hydro 3 d 5.6
       hydro 5 g 17.6
       hydro 1 s 0.75
  #  "Third tier" - improvements: -2.83 meV to -0.50 meV
  #     ionic 2 p auto
  #     hydro 4 f 10.8
  #     hydro 4 d 4.7
  #     hydro 2 s 6.8
  #  "Fourth tier" - improvements: -0.40 meV to -0.12 meV
  #     hydro 3 p 5
  #     hydro 3 s 3.3
  #     hydro 5 g 15.6
  #     hydro 4 f 17.6
  #     hydro 4 d 14
  # Further basis functions - -0.08 meV and below
  #     hydro 3 s 2.1
  #     hydro 4 d 11.6
  #     hydro 3 p 16
  #     hydro 2 s 17.2
  ################################################################################
  #
  # For methods that use the localized form of the "resolution of identity" for
  # the two-electron Coulomb operator (RI_method LVL), particularly Hartree-Fock and
  # hybrid density functional calculations, the highest accuracy can be obtained by
  # uncommenting the line beginning with "for_aux"  below, thus adding an extra g radial
  # function to the construction of the product basis set for the expansion.
  # See Ref. New J. Phys. 17, 093020 (2015) for more information, particularly Figs. 1 and 6.
  #
  ################################################################################
  #
  # for_aux hydro 5 g 6.0
  
  -----------------------------------------------------------------------
  Completed first pass over input file control.in .
  -----------------------------------------------------------------------
  
  
  -----------------------------------------------------------------------
  Parsing geometry.in (first pass over file, find array dimensions only).
  The contents of geometry.in will be repeated verbatim below
  unless switched off by setting 'verbatim_writeout .false.' .
  in the first line of geometry.in .
  -----------------------------------------------------------------------
  
  atom       0.72382111      0.00588870      0.00049444 O
  atom      -0.70620906     -0.01558781     -0.00556392 C
  atom      -1.11721219     -0.77076870      0.68683695 H
  atom      -1.11823111     -0.19418879     -1.01400208 H
  atom      -1.03465450      0.97605305      0.33094306 H
  atom       1.03658576     -0.86689644     -0.29160845 H
  
  -----------------------------------------------------------------------
  Completed first pass over input file geometry.in .
  -----------------------------------------------------------------------
  

  Basic array size parameters:
  | Number of species                 :        3
  | Number of atoms                   :        6
  | Max. basis fn. angular momentum   :        4
  | Max. atomic/ionic basis occupied n:        2
  | Max. number of basis fn. types    :        2
  | Max. radial fns per species/type  :        8
  | Max. logarithmic grid size        :     1301
  | Max. radial integration grid size :       73
  | Max. angular integration grid size:      434
  | Max. angular grid division number :        8
  | Radial grid for Hartree potential :     1301
  | Number of spin channels           :        1

------------------------------------------------------------
          Reading file control.in.
------------------------------------------------------------
  XC: Using PBE gradient-corrected functionals.
  Scalar relativistic treatment of kinetic energy: on-site free-atom approximation to ZORA.
  Spin treatment: No spin polarisation.
  Geometry relaxation: Modified BFGS - TRM (trust radius method) for lattice optimization.
  Convergence accuracy for geometry relaxation: Maximum force <   0.500000E-02 eV/A.
 
  Reading configuration options for species H                   .
  | Found nuclear charge :   1.0000
  | Found atomic mass :    1.00794000000000      amu
  | Found l_max for Hartree potential  :   6
  | Found cutoff potl. onset [A], width [A], scale factor :    4.00000    2.00000    1.00000
  | Threshold for basis-dependent cutoff potential is   0.100000E-03
  | Found data for basic radial integration grid :    24 points, outermost radius =    7.000 A
  | Found multiplier for basic radial grid :   2
  | Found angular grid specification: user-specified.
  | Specified grid contains     6 separate shells.
  | Check grid settings after all constraints further below.
  | Found free-atom valence shell :  1 s   1.000
  | No ionic wave fns used. Skipping ion_occ.
  | Found hydrogenic basis function :  2 s   2.100
  | Found hydrogenic basis function :  2 p   3.500
  | Found hydrogenic basis function :  1 s   0.850
  | Found hydrogenic basis function :  2 p   3.700
  | Found hydrogenic basis function :  2 s   1.200
  | Found hydrogenic basis function :  3 d   7.000
 | Encountered keyword species, ending the description of species H                   .
  Species H                   : Missing cutoff potential type.
  Defaulting to exp(1/x)/(1-x)^2 type cutoff potential.
  Species H : No 'logarithmic' tag. Using default grid for free atom:
  | Default logarithmic grid data [bohr] : 0.1000E-03 0.1000E+03 0.1012E+01
  Species H : On-site basis accuracy parameter (for Gram-Schmidt orthonormalisation) not specified.
  Using default value basis_acc =  0.1000000E-03.
  Species H                   : Using default innermost maximum threshold i_radial=  2 for radial functions.
  Species H                   : Default cutoff onset for free atom density etc. : 0.40000000E+01 AA.
  Species H                   : Basic radial grid will be enhanced according to radial_multiplier =   2, to contain    49 grid points.
 
  Reading configuration options for species C                   .
  | Found nuclear charge :   6.0000
  | Found atomic mass :    12.0107000000000      amu
  | Found l_max for Hartree potential  :   6
  | Found cutoff potl. onset [A], width [A], scale factor :    4.00000    2.00000    1.00000
  | Threshold for basis-dependent cutoff potential is   0.100000E-03
  | Found data for basic radial integration grid :    34 points, outermost radius =    7.000 A
  | Found multiplier for basic radial grid :   2
  | Found angular grid specification: user-specified.
  | Specified grid contains     6 separate shells.
  | Check grid settings after all constraints further below.
  | Found free-atom valence shell :  2 s   2.000
  | Found free-atom valence shell :  2 p   2.000
  | No ionic wave fns used. Skipping ion_occ.
  | No ionic wave fns used. Skipping ion_occ.
  | Found hydrogenic basis function :  2 p   1.700
  | Found hydrogenic basis function :  3 d   6.000
  | Found hydrogenic basis function :  2 s   4.900
  | Found hydrogenic basis function :  4 f   9.800
  | Found hydrogenic basis function :  3 p   5.200
  | Found hydrogenic basis function :  3 s   4.300
  | Found hydrogenic basis function :  5 g  14.400
  | Found hydrogenic basis function :  3 d   6.200
 | Encountered keyword species, ending the description of species C                   .
  Species C                   : Missing cutoff potential type.
  Defaulting to exp(1/x)/(1-x)^2 type cutoff potential.
  Species C : No 'logarithmic' tag. Using default grid for free atom:
  | Default logarithmic grid data [bohr] : 0.1000E-03 0.1000E+03 0.1012E+01
  Species C : On-site basis accuracy parameter (for Gram-Schmidt orthonormalisation) not specified.
  Using default value basis_acc =  0.1000000E-03.
  Species C                   : Using default innermost maximum threshold i_radial=  2 for radial functions.
  Species C                   : Default cutoff onset for free atom density etc. : 0.40000000E+01 AA.
  Species C                   : Basic radial grid will be enhanced according to radial_multiplier =   2, to contain    69 grid points.
 
  Reading configuration options for species O                   .
  | Found nuclear charge :   8.0000
  | Found atomic mass :    15.9994000000000      amu
  | Found l_max for Hartree potential  :   6
  | Found cutoff potl. onset [A], width [A], scale factor :    4.00000    2.00000    1.00000
  | Threshold for basis-dependent cutoff potential is   0.100000E-03
  | Found data for basic radial integration grid :    36 points, outermost radius =    7.000 A
  | Found multiplier for basic radial grid :   2
  | Found angular grid specification: user-specified.
  | Specified grid contains     6 separate shells.
  | Check grid settings after all constraints further below.
  | Found free-atom valence shell :  2 s   2.000
  | Found free-atom valence shell :  2 p   4.000
  | No ionic wave fns used. Skipping ion_occ.
  | No ionic wave fns used. Skipping ion_occ.
  | Found hydrogenic basis function :  2 p   1.800
  | Found hydrogenic basis function :  3 d   7.600
  | Found hydrogenic basis function :  3 s   6.400
  | Found hydrogenic basis function :  4 f  11.600
  | Found hydrogenic basis function :  3 p   6.200
  | Found hydrogenic basis function :  3 d   5.600
  | Found hydrogenic basis function :  5 g  17.600
  | Found hydrogenic basis function :  1 s   0.750
  Species O                   : Missing cutoff potential type.
  Defaulting to exp(1/x)/(1-x)^2 type cutoff potential.
  Species O : No 'logarithmic' tag. Using default grid for free atom:
  | Default logarithmic grid data [bohr] : 0.1000E-03 0.1000E+03 0.1012E+01
  Species O : On-site basis accuracy parameter (for Gram-Schmidt orthonormalisation) not specified.
  Using default value basis_acc =  0.1000000E-03.
  Species O                   : Using default innermost maximum threshold i_radial=  2 for radial functions.
  Species O                   : Default cutoff onset for free atom density etc. : 0.40000000E+01 AA.
  Species O                   : Basic radial grid will be enhanced according to radial_multiplier =   2, to contain    73 grid points.
 
  Finished reading input file 'control.in'.
 
------------------------------------------------------------


------------------------------------------------------------
          Reading geometry description geometry.in.
------------------------------------------------------------
  | The smallest distance between any two atoms is         0.97205953 AA.
  | The first atom of this pair is atom number                      1 .
  | The second atom of this pair is atom number                     6 .
  Input structure read successfully.
  The structure contains        6 atoms,  and a total of         18.000 electrons.

  Input geometry:
  | No unit cell requested.
  | Atomic structure:
  |       Atom                x [A]            y [A]            z [A]
  |    1: Species O             0.72382111        0.00588870        0.00049444
  |    2: Species C            -0.70620906       -0.01558781       -0.00556392
  |    3: Species H            -1.11721219       -0.77076870        0.68683695
  |    4: Species H            -1.11823111       -0.19418879       -1.01400208
  |    5: Species H            -1.03465450        0.97605305        0.33094306
  |    6: Species H             1.03658576       -0.86689644       -0.29160845

  Slab Identifier: This is not a periodic structure.
 
  Finished reading input file 'geometry.in'.
 

 
  Consistency checks for stacksize environment parameter are next.
 
  | Maximum stacksize for task 0: unlimited
  | Maximum stacksize for task 1: unlimited
  | Maximum stacksize for task 2: unlimited
  | Maximum stacksize for task 3: unlimited
  | Maximum stacksize for task 4: unlimited
  | Maximum stacksize for task 5: unlimited
  | Maximum stacksize for task 6: unlimited
  | Maximum stacksize for task 7: unlimited
  | Maximum stacksize for task 8: unlimited
  | Maximum stacksize for task 9: unlimited
  | Maximum stacksize for task 10: unlimited
  | Maximum stacksize for task 11: unlimited
  | Maximum stacksize for task 12: unlimited
  | Maximum stacksize for task 13: unlimited
  | Maximum stacksize for task 14: unlimited
  | Maximum stacksize for task 15: unlimited
  | Maximum stacksize for task 16: unlimited
  | Maximum stacksize for task 17: unlimited
  | Maximum stacksize for task 18: unlimited
  | Maximum stacksize for task 19: unlimited
  | Current stacksize for task 0: unlimited
  | Current stacksize for task 1: unlimited
  | Current stacksize for task 2: unlimited
  | Current stacksize for task 3: unlimited
  | Current stacksize for task 4: unlimited
  | Current stacksize for task 5: unlimited
  | Current stacksize for task 6: unlimited
  | Current stacksize for task 7: unlimited
  | Current stacksize for task 8: unlimited
  | Current stacksize for task 9: unlimited
  | Current stacksize for task 10: unlimited
  | Current stacksize for task 11: unlimited
  | Current stacksize for task 12: unlimited
  | Current stacksize for task 13: unlimited
  | Current stacksize for task 14: unlimited
  | Current stacksize for task 15: unlimited
  | Current stacksize for task 16: unlimited
  | Current stacksize for task 17: unlimited
  | Current stacksize for task 18: unlimited
  | Current stacksize for task 19: unlimited
 
  Consistency checks for the contents of control.in are next.
 
  MPI_IN_PLACE appears to work with this MPI implementation.
  | Keeping use_mpi_in_place .true. (see manual).
  Target number of points in a grid batch is not set. Defaulting to  100
  Method for grid partitioning is not set. Defaulting to parallel hash+maxmin partitioning.
  Batch size limit is not set. Defaulting to    200
  By default, will store active basis functions for each batch.
  If in need of memory, prune_basis_once .false. can be used to disable this option.
  communication_type for Hartree potential was not specified.
  Defaulting to calc_hartree .
  Defaulting to Pulay charge density mixer.
  Pulay mixer: Number of relevant iterations not set.
  Defaulting to    8 iterations.
  Pulay mixer: Number of initial linear mixing iterations not set.
  Defaulting to    0 iterations.
  Work space size for distributed Hartree potential not set.
  Defaulting to   0.200000E+03 MB.
  Mixing parameter for charge density mixing has not been set.
  Using default: charge_mix_param =     0.0500.
  The mixing parameter will be adjusted in iteration number     2 of each s.c.f. cycle (i.e., each geometry step).
  Algorithm-dependent basis array size parameters:
  | n_max_pulay                         :        8
  Maximum number of self-consistency iterations not provided.
  Presetting  1000 iterations.
  Presetting      1001 iterations before the initial mixing cycle
  is restarted anyway using the sc_init_iter criterion / keyword.
  Presetting a factor      1.000 between actual scf density residual
  and density convergence criterion sc_accuracy_rho below which sc_init_iter
  takes no effect.
 * No s.c.f. convergence criteria (sc_accuracy_*) were provided in control.in.
 * The run will proceed with a reasonable default guess, but please check whether.
 * the s.c.f. cycles seem to take too much or too little time.
  No maximum number of relaxation steps, defaulting to     1000
  Default initial Hessian is Lindh matrix (thres = 15.00) plus  0.200000E+01 eV/A^2 times unity.
  No maximum energy tolerance for TRM/BFGS moves, defaulting to   0.150000E-02
  Maximum energy tolerance by which TRM/BFGS trajectory may increase over multiple steps:   0.300000E-02
  No harmonic length scale. Defaulting to   0.250000E-01 A.
  No trust radius initializer. Defaulting to   0.200000E+00 A.
  Forces evaluation will include force correction term due to incomplete self-consistency (default).
 * Notice: The s.c.f. convergence criterion sc_accuracy_rho was not provided.
 * We used to stop in this case, and ask the user to provide reasonable
 * scf convergence criteria. However, this led some users to employ criteria
 * that led to extremely long run times, e.g., for simple relaxation.
 * We now preset a default value for sc_accuracy_rho if it is not set.
 * You may still wish to check if this setting is too tight or too loose for your needs.
 * Based on n_atoms and forces and force-correction status, FHI-aims chose sc_accuracy_rho =  0.800000E-05 .
  Force calculation: scf convergence accuracy of forces not set.
  Defaulting to 'sc_accuracy_forces not_checked'.
  Handling of forces: Unphysical translation and rotation will be removed from forces.
  No accuracy limit for integral partition fn. given. Defaulting to  0.1000E-14.
  No threshold value for u(r) in integrations given. Defaulting to  0.1000E-05.
  No occupation type (smearing scheme) given. Defaulting to Gaussian broadening, width =  0.1000E-01 eV.
  The width will be adjusted in iteration number     2 of each s.c.f. cycle (i.e., each geometry step).
  No accuracy for occupation numbers given. Defaulting to  0.1000E-12.
  No threshold value for occupation numbers given. Defaulting to  0.0000E+00.
  No accuracy for fermi level given. Defaulting to  0.1000E-19.
  Maximum # of iterations to find E_F not set. Defaulting to  200.
  Preferred method for the eigenvalue solver ('KS_method') not specified in 'control.in'.
  Calling BLACS routine to test compilation state
  Since ScaLAPACK support is enabled, defaulting to ELPA (via ELSI).
  Will not use alltoall communication since running on < 1024 CPUs.
  Threshold for basis singularities not set.
  Default threshold for basis singularities:  0.1000E-04
  partition_type (choice of integration weights) for integrals was not specified.
  | Using a version of the partition function of Stratmann and coworkers ('stratmann_sparse').
  | At each grid point, the set of atoms used to build the partition table is smoothly restricted to
  | only those atoms whose free-atom density would be non-zero at that grid point.
  Partitioning for Hartree potential was not defined. Using partition_type for integrals.
  | Adjusted default value of keyword multip_moments_threshold to:       0.10000000E-11
  | This value may affect high angular momentum components of the Hartree potential in periodic systems.
  No q(lm)/r^(l+1) cutoff set for long-range Hartree potential.
  | Using default value of  0.100000E-09 .
  | Verify using the multipole_threshold keyword.
  Defaulting to new monopole extrapolation.
  Density update method: automatic selection selected.
  Geometry relaxation: A file "geometry.in.next_step" is written out by default after each step.
  | This file contains the geometry of the current relaxation step as well as
  | the current Hessian matrix needed to restart the relaxation algorithm.
  | If you do not want part or all of this information, use the keywords
  | "write_restart_geometry" or "hessian_to_restart_geometry" to switch the output off.
  Charge integration errors on the 3D integration grid will be compensated
  by explicit normalization and distribution of residual charges.
  Use the "compensate_multipole_errors" flag to change this behaviour.
  Set 'collect_eigenvectors' to be '.true.' for use_density_matrix .false.
  Found potential conflicts with setting 'use_local_index' for this calculation. Will not set it.
 
  Consistency checks for the contents of geometry.in are next.
 
  Number of empty states per atom not set in control.in - providing a guess from actual geometry.
  | Total number of empty states used during s.c.f. cycle:       12
  If you use a very high smearing, use empty_states (per atom!) in control.in to increase this value.

  Structure-dependent array size parameters: 
  | Maximum number of distinct radial functions  :       29
  | Maximum number of basis functions            :      138
  | Number of Kohn-Sham states (occupied + empty):       21
------------------------------------------------------------
  After read_input_data [GB]:    923.95

  Performing system and environment tests:
  *** Environment variable OMP_NUM_THREADS is not set
  *** For performance reasons you might want to set it to 1
  | Checking for ScaLAPACK...
  | Testing pdtran()...
  | All pdtran() tests passed.
  After prepare_system [GB]:    923.85

------------------------------------------------------------
          Preparing all fixed parts of the calculation.
------------------------------------------------------------
  Determining machine precision:
    2.225073858507201E-308
  Setting up grids for atomic and cluster calculations.

  Creating wave function, potential, and density for free atoms.
  Runtime choices for atomic solver:
  | atomic solver xc        : PBE
  | compute density gradient: 1
  | compute kinetic density : F

  Species: H

  List of occupied orbitals and eigenvalues:
    n    l              occ      energy [Ha]    energy [eV]
    1    0           1.0000        -0.238386        -6.4868


  Species: C

  List of occupied orbitals and eigenvalues:
    n    l              occ      energy [Ha]    energy [eV]
    1    0           2.0000       -10.049212      -273.4530
    2    0           2.0000        -0.504761       -13.7352
    2    1           2.0000        -0.193631        -5.2690


  Species: O

  List of occupied orbitals and eigenvalues:
    n    l              occ      energy [Ha]    energy [eV]
    1    0           2.0000       -18.927378      -515.0401
    2    0           2.0000        -0.880539       -23.9607
    2    1           4.0000        -0.331811        -9.0290


  Adding cutoff potential to free-atom effective potential.
  Creating fixed part of basis set: Ionic, confined, hydrogenic.
 
  H                    hydrogenic:
 
  List of hydrogenic basis orbitals: 
    n    l      effective z      eigenvalue [eV]  inner max. [A]     outer max. [A]     outer radius [A]   
    2    0         2.100000       -14.9965           0.193243           1.317208           5.373006
    2    1         3.500000       -41.6672           0.602369           0.602369           4.056063
    1    0         0.850000        -9.8292           0.624871           0.624871           5.373006
    2    1         3.700000       -46.5653           0.573622           0.573622           3.910002
    2    0         1.200000        -4.5995           0.334980           2.228188           5.505995
    3    2         7.000000       -74.0753           0.680699           0.680699           3.769201
 
 
  C                    hydrogenic:
 
  List of hydrogenic basis orbitals: 
    n    l      effective z      eigenvalue [eV]  inner max. [A]     outer max. [A]     outer radius [A]   
    2    1         1.700000        -9.8152           1.245706           1.245706           5.401630
    3    2         6.000000       -54.4226           0.792453           0.792453           4.178599
    2    0         4.900000       -81.6681           0.082559           0.562749           3.353238
    4    3         9.800000       -81.6681           0.863254           0.863254           4.028125
    3    1         5.200000       -40.8774           0.305389           1.215618           4.898362
    3    0         4.300000       -27.9508           0.091041           1.610311           5.401630
    5    4        14.400000      -112.8510           0.917666           0.917666           3.883070
    3    2         6.200000       -58.1113           0.763917           0.763917           4.077671
 
 
  O                    hydrogenic:
 
  List of hydrogenic basis orbitals: 
    n    l      effective z      eigenvalue [eV]  inner max. [A]     outer max. [A]     outer radius [A]   
    2    1         1.800000       -11.0118           1.178562           1.178562           5.432602
    3    2         7.600000       -87.3182           0.624125           0.624125           3.541477
    3    0         6.400000       -61.9209           0.061167           1.081902           4.306578
    4    3        11.600000      -114.4238           0.731631           0.731631           3.585037
    3    1         6.200000       -58.1113           0.255680           1.030270           4.306578
    3    2         5.600000       -47.4081           0.847233           0.847233           4.413171
    5    4        17.600000      -168.5799           0.749740           0.749740           3.372465
    1    0         0.750000        -7.6499           0.705284           0.705284           5.366593
 
  Creating atomic-like basis functions for current effective potential.

  Species H                   :

  List of atomic basis orbitals and eigenvalues:
    n    l      energy [Ha]    energy [eV]    outer radius [A]
    1    0        -0.238386        -6.4868       5.373006


  Species C                   :

  List of atomic basis orbitals and eigenvalues:
    n    l      energy [Ha]    energy [eV]    outer radius [A]
    1    0       -10.049212      -273.4530       1.934409
    2    0        -0.504761       -13.7352       5.271162
    2    1        -0.193631        -5.2690       5.401630


  Species O                   :

  List of atomic basis orbitals and eigenvalues:
    n    l      energy [Ha]    energy [eV]    outer radius [A]
    1    0       -18.927378      -515.0401       1.415765
    2    0        -0.880539       -23.9607       5.048385
    2    1        -0.331811        -9.0290       5.301386

  Assembling full basis from fixed parts.
  | Species H :   atomic orbital   1 s accepted.
  | Species H :    hydro orbital   2 s accepted.
  | Species H :    hydro orbital   1 s accepted.
  | Species H :    hydro orbital   2 s accepted.
  | Species H :    hydro orbital   2 p accepted.
  | Species H :    hydro orbital   2 p accepted.
  | Species H :    hydro orbital   3 d accepted.
  | Species C :   atomic orbital   1 s accepted.
  | Species C :    hydro orbital   2 s accepted.
  | Species C :   atomic orbital   2 s accepted.
  | Species C :    hydro orbital   3 s accepted.
  | Species C :    hydro orbital   3 p accepted.
  | Species C :   atomic orbital   2 p accepted.
  | Species C :    hydro orbital   2 p accepted.
  | Species C :    hydro orbital   3 d accepted.
  | Species C :    hydro orbital   3 d accepted.
  | Species C :    hydro orbital   4 f accepted.
  | Species C :    hydro orbital   5 g accepted.
  | Species O :   atomic orbital   1 s accepted.
  | Species O :    hydro orbital   3 s accepted.
  | Species O :   atomic orbital   2 s accepted.
  | Species O :    hydro orbital   1 s accepted.
  | Species O :    hydro orbital   3 p accepted.
  | Species O :   atomic orbital   2 p accepted.
  | Species O :    hydro orbital   2 p accepted.
  | Species O :    hydro orbital   3 d accepted.
  | Species O :    hydro orbital   3 d accepted.
  | Species O :    hydro orbital   4 f accepted.
  | Species O :    hydro orbital   5 g accepted.
 
  Basis size parameters after reduction:
  | Total number of radial functions:       29
  | Total number of basis functions :      138
 
  Per-task memory consumption for arrays in subroutine allocate_ext:
  |           9.663924MB.
  Testing on-site integration grid accuracy.
  |  Species  Function  <phi|h_atom|phi> (log., in eV)  <phi|h_atom|phi> (rad., in eV)
           1        1                 -6.4870767962                 -6.4871688290
           1        2                 13.5032046589                 13.5028982997
           1        3                 32.8195184817                 32.8119941656
           1        4                 33.8513856511                 33.7670005767 ***
           1        5                 28.8544614965                 28.8544615203
           1        6                 59.6326952547                 59.6327656460
           1        7                 60.2719308513                 60.2719305949
           2        8               -273.4529725981               -273.4529710451
           2        9                -10.7721037329                -10.7721022102
           2       10                 17.6044132585                 17.6044162052
           2       11                 53.7706460564                 53.7706913681
           2       12                 15.0973290351                 15.0973256011
           2       13                  3.8545134677                  3.8545724657
           2       14                 12.1156992586                 12.1182024423
           2       15                 29.4352039288                 29.4352041805
           2       16                 54.8741144697                 54.8740268719
           2       17                 59.3556032036                 59.3556031370
           2       18                 93.4551837140                 93.4551837996
           3       19               -515.0401491148               -515.0401445497
           3       20                 15.1629302771                 15.1629233102
           3       21                -21.6127103295                -21.6127145449
           3       22                 14.4001435709                 14.4001765990
           3       23                 20.8862585187                 20.8862589491
           3       24                 -2.4803658578                 -2.4803665016
           3       25                 13.8586387760                 13.8586021622
           3       26                 45.8331828879                 45.8331828941
           3       27                 52.1851961049                 52.1851977023
           3       28                 85.4133898762                 85.4133899074
           3       29                142.1023296234                142.1023296272
 * Note: Onsite integrals marked "***" above are less accurate than
 * onsite_accuracy_threshold =    0.03000 eV. Usually, this is harmless.
 * When in doubt, tighten the "radial" and/or "radial_multiplier" flags to check.

  Preparing densities etc. for the partition functions (integrals / Hartree potential).

  Preparations completed.
  max(cpu_time)          :      0.313 s.
  Wall clock time (cpu1) :      0.312 s.
------------------------------------------------------------
  After prepare_scf [GB]:    923.33

  Initializing index lists of integration centers etc. from given atomic structure:
  | Number of centers in hartree potential         :         6
  | Number of centers in hartree multipole         :         6
  | Number of centers in electron density summation:         6
  | Number of centers in basis integrals           :         6
  | Number of centers in integrals                 :         6
  | Number of centers in hamiltonian               :         6
  After initialize_bc_dependent_lists [GB]:    923.34

------------------------------------------------------------
          Begin self-consistency loop: Initialization.

          Date     :  20250306, Time     :  150230.576
------------------------------------------------------------

  Initializing relaxation algorithms.
  Finished initialization of distributed Hessian storage.
  | Global dimension:        18
  | BLACS block size:         1
  | Number of workers:       18

  Available memory per node after initialize_hartree_non_periodic_ewald [GB]:    923.34
  Available memory per node after initialize_recip_hartree_potential [GB]:    923.34
  * Using 20 tasks for Scalapack Eigenvalue solver.
  Detailed listing of tasks and assigned k-points:
  (for non-periodic systems, the "k-point" denotes an internal label only)
   Task     0 k-point     1 on RSL-arvutus
   Task     1 k-point     1 on RSL-arvutus
   Task     2 k-point     1 on RSL-arvutus
   Task     3 k-point     1 on RSL-arvutus
   Task     4 k-point     1 on RSL-arvutus
   Task     5 k-point     1 on RSL-arvutus
   Task     6 k-point     1 on RSL-arvutus
   Task     7 k-point     1 on RSL-arvutus
   Task     8 k-point     1 on RSL-arvutus
   Task     9 k-point     1 on RSL-arvutus
   Task    10 k-point     1 on RSL-arvutus
   Task    11 k-point     1 on RSL-arvutus
   Task    12 k-point     1 on RSL-arvutus
   Task    13 k-point     1 on RSL-arvutus
   Task    14 k-point     1 on RSL-arvutus
   Task    15 k-point     1 on RSL-arvutus
   Task    16 k-point     1 on RSL-arvutus
   Task    17 k-point     1 on RSL-arvutus
   Task    18 k-point     1 on RSL-arvutus
   Task    19 k-point     1 on RSL-arvutus
  Tasks:    20 split into      5 X      4 BLACS grid
  Calculating block size based on n_basis =          138  max_nprow =            5  max_npcol =            4
  ScaLAPACK block size set to:           16
  Allocating        0.010 MB for ovlp
  Allocating        0.010 MB for ham
  Allocating        0.010 MB for eigenvec
  Required Scalapack workspace - INTEGER:            1  REAL:             1
  Available memory per node after initialize_scalapack [GB]:    923.34
  Available memory per node after aims_elsi_init_scf [GB]:    923.34
  Available memory per node after initialize_fixed_grids [GB]:    923.34
  Partitioning the integration grid into batches with parallel hashing+maxmin method.
  | Number of batches:     1191
  | Maximal batch size:     200
  | Minimal batch size:      49
  | Average batch size:      80.618
  | Standard deviation of batch sizes:      22.549

  Integration load balanced across    20 MPI tasks.
  Work distribution over tasks is as follows:
  Task     0 has       4778 integration points.
  Task     1 has       4748 integration points.
  Task     2 has       4748 integration points.
  Task     3 has       4764 integration points.
  Task     4 has       4803 integration points.
  Task     5 has       4930 integration points.
  Task     6 has       4750 integration points.
  Task     7 has       4808 integration points.
  Task     8 has       4775 integration points.
  Task     9 has       4841 integration points.
  Task    10 has       4858 integration points.
  Task    11 has       4898 integration points.
  Task    12 has       4784 integration points.
  Task    13 has       4810 integration points.
  Task    14 has       4744 integration points.
  Task    15 has       4755 integration points.
  Task    16 has       4781 integration points.
  Task    17 has       4852 integration points.
  Task    18 has       4844 integration points.
  Task    19 has       4745 integration points.
  Available memory per node after partition_grid [GB]:    923.31
  Initializing partition tables, free-atom densities, potentials, etc. across the integration grid (initialize_grid_storage).
  | initialize_grid_storage: Actual outermost partition radius vs. multipole_radius_free
  | (-- VB: in principle, multipole_radius_free should be larger, hence this output)
  | Species        1: Confinement radius =              6.000000000000000 AA, multipole_radius_free =              6.071692442739658 AA.
  | Species        1: outer_partition_radius set to              6.071692442739658 AA .
  | Species        2: Confinement radius =              6.000000000000000 AA, multipole_radius_free =              6.029870734432609 AA.
  | Species        2: outer_partition_radius set to              6.029870734432609 AA .
  | Species        3: Confinement radius =              6.000000000000000 AA, multipole_radius_free =              6.064445521808699 AA.
  | Species        3: outer_partition_radius set to              6.064445521808699 AA .
  | The sparse table of interatomic distances needs          0.39 kbyte instead of         0.29 kbyte of memory.
  | Using the partition_type stratmann_smoother will reduce your memory usage.
  | Net number of integration points:    96016
  | of which are non-zero points    :    81683
  Available memory per node after initialize_grid_storage_p1 [GB]:    923.25
  Renormalizing the initial density to the exact electron count on the 3D integration grid.
  | Initial density: Formal number of electrons (from input files) :      18.0000000000
  | Integrated number of electrons on 3D grid     :      17.9999969394
  | Charge integration error                      :      -0.0000030606
  | Normalization factor for density and gradient :       1.0000001700
  Renormalizing the free-atom superposition density to the exact electron count on the 3D integration grid.
  | Formal number of electrons (from input files) :      18.0000000000
  | Integrated number of electrons on 3D grid     :      17.9999969394
  | Charge integration error                      :      -0.0000030606
  | Normalization factor for density and gradient :       1.0000001700
  Obtaining max. number of non-zero basis functions in each batch (get_n_compute_maxes).
  | Maximal number of non-zero basis functions:      138 in task     0
  | Maximal number of non-zero basis functions:      138 in task     1
  | Maximal number of non-zero basis functions:      138 in task     2
  | Maximal number of non-zero basis functions:      138 in task     3
  | Maximal number of non-zero basis functions:      138 in task     4
  | Maximal number of non-zero basis functions:      138 in task     5
  | Maximal number of non-zero basis functions:      138 in task     6
  | Maximal number of non-zero basis functions:      138 in task     7
  | Maximal number of non-zero basis functions:      138 in task     8
  | Maximal number of non-zero basis functions:      138 in task     9
  | Maximal number of non-zero basis functions:      138 in task    10
  | Maximal number of non-zero basis functions:      138 in task    11
  | Maximal number of non-zero basis functions:      138 in task    12
  | Maximal number of non-zero basis functions:      138 in task    13
  | Maximal number of non-zero basis functions:      138 in task    14
  | Maximal number of non-zero basis functions:      138 in task    15
  | Maximal number of non-zero basis functions:      138 in task    16
  | Maximal number of non-zero basis functions:      138 in task    17
  | Maximal number of non-zero basis functions:      138 in task    18
  | Maximal number of non-zero basis functions:      138 in task    19
  Selecting the method for density update.
  Loop over occupied states selected for charge density update.
  Available memory per node after get_n_compute_maxes_p1 [GB]:    923.25
  Allocating        0.022 MB for KS_eigenvector
  Available memory per node after allocate_matrices [GB]:    923.25
  Available memory per node after init_comm_sparse_local_matrix_scalapack [GB]:    923.25
  Integrating Hamiltonian matrix: batch-based integration.
  Time summed over all CPUs for integration: real work        0.673 s, elapsed        1.539 s => Consider using load balancing!
  Available memory per node after integrate hamiltonian matrix [GB]:    923.20
  Integrating overlap matrix.
  Time summed over all CPUs for integration: real work        0.312 s, elapsed        0.644 s
  Available memory per node after integrate ovlp matrix [GB]:    923.19
  Available memory per node after ASI_callbacks invoke [GB]:    923.20
  Deallocating overlap matrix.
  Available memory per node after save_overlap_scalapack [GB]:    923.20

  Updating Kohn-Sham eigenvalues and eigenvectors using ELSI and the ELPA eigensolver.
  Overlap matrix is not singular
  | Lowest and highest eigenvalues :  0.2150E-03,  0.5163E+01
  Finished singularity check of overlap matrix
  | Time :     0.012 s
  Starting ELPA eigensolver
  Finished Cholesky decomposition
  | Time :     0.005 s
  Finished transformation to standard eigenproblem
  | Time :     0.002 s
  Finished solving standard eigenproblem
  | Time :     0.008 s
  Finished back-transformation of eigenvectors
  | Time :     0.001 s

  Obtaining occupation numbers and electronic chemical potential using ELSI.
  | Note that, for insulating systems, the printed 'chemical potential' value is not uniquely defined.
  | It can be anywhere in the energy gap, as long as it correctly separates occupied and unoccupied states.
  | In systems with a gap, the physically relevant chemical potential is the VBM or HOMO.

  Residual electron error for mid-point Fermi level : 0.0000000000000000E+000
  ELSI found chemical potential half-way between HOMO and LUMO.
  | Chemical potential (Fermi level):    -6.49444967 eV
  Available memory per node after advance_KS_solution [GB]:    923.18
  Writing Kohn-Sham eigenvalues.

  State    Occupation    Eigenvalue [Ha]    Eigenvalue [eV]
      1       2.00000         -19.017757         -517.49950
      2       2.00000         -10.166530         -276.64535
      3       2.00000          -1.101154          -29.96393
      4       2.00000          -0.788976          -21.46914
      5       2.00000          -0.616877          -16.78606
      6       2.00000          -0.549810          -14.96108
      7       2.00000          -0.544796          -14.82466
      8       2.00000          -0.462011          -12.57196
      9       2.00000          -0.401326          -10.92064
     10       0.00000          -0.076007           -2.06826
     11       0.00000          -0.041990           -1.14261
     12       0.00000          -0.008616           -0.23446
     13       0.00000          -0.000236           -0.00643
     14       0.00000           0.014944            0.40665
     15       0.00000           0.060701            1.65177
     16       0.00000           0.068420            1.86180
     17       0.00000           0.110872            3.01699
     18       0.00000           0.120460            3.27789
     19       0.00000           0.156781            4.26624
     20       0.00000           0.168575            4.58716
     21       0.00000           0.169817            4.62096

  Highest occupied state (VBM) at    -10.92064210 eV
  | Occupation number:      2.00000000

  Lowest unoccupied state (CBM) at    -2.06825723 eV
  | Occupation number:      0.00000000

  Overall HOMO-LUMO gap:      8.85238488 eV.
  Calculating total energy contributions from superposition of free atom densities.

  Total energy components:
  | Sum of eigenvalues            :         -67.29847413 Ha       -1831.28465593 eV
  | XC energy correction          :         -14.94546355 Ha        -406.68675523 eV
  | XC potential correction       :          19.21180086 Ha         522.77970023 eV
  | Free-atom electrostatic energy:         -52.84128012 Ha       -1437.88439089 eV
  | Hartree energy correction     :           0.00000000 Ha           0.00000000 eV
  | Entropy correction            :           0.00000000 Ha           0.00000000 eV
  | ---------------------------
  | Total energy                  :        -115.87341695 Ha       -3153.07610182 eV
  | Total energy, T -> 0          :        -115.87341695 Ha       -3153.07610182 eV  <-- do not rely on this value for anything but (periodic) metals
  | Electronic free energy        :        -115.87341695 Ha       -3153.07610182 eV

  Derived energy quantities:
  | Kinetic energy                :         114.35916279 Ha        3111.87114978 eV
  | Electrostatic energy          :        -215.28711618 Ha       -5858.26049637 eV
  | Energy correction for multipole
  | error in Hartree potential    :           0.00000000 Ha           0.00000000 eV
  | Sum of eigenvalues per atom                           :        -305.21410932 eV
  | Total energy (T->0) per atom                          :        -525.51268364 eV  <-- do not rely on this value for anything but (periodic) metals
  | Electronic free energy per atom                       :        -525.51268364 eV
  Initialize hartree_potential_storage
  Max. number of atoms included in rho_multipole:            6

  End scf initialization - timings             :  max(cpu_time)    wall_clock(cpu1)
  | Time for scf. initialization                :        0.244 s           0.243 s
  | Boundary condition initialization           :        0.028 s           0.028 s
  | Relaxation initialization                   :        0.003 s           0.003 s
  | Integration                                 :        0.112 s           0.112 s
  | Solution of K.-S. eqns.                     :        0.033 s           0.033 s
  | Grid partitioning                           :        0.046 s           0.046 s
  | Preloading free-atom quantities on grid     :        0.035 s           0.036 s
  | Free-atom superposition energy              :        0.006 s           0.006 s
  | Total energy evaluation                     :        0.000 s           0.000 s

  Partial memory accounting:
  | Current value for overall tracked memory usage:
  |   Minimum:        0.114 MB (on task 17)
  |   Maximum:        0.133 MB (on task  0)
  |   Average:        0.124 MB
  | Peak value for overall tracked memory usage:
  |   Minimum:        0.967 MB (on task 17 after allocating wave)
  |   Maximum:        0.986 MB (on task  0 after allocating wave)
  |   Average:        0.977 MB
  | Largest tracked array allocation so far:
  |   Minimum:        0.211 MB (H_times_psi on task  0)
  |   Maximum:        0.589 MB (all_coords on task  8)
  |   Average:        0.258 MB
  Note:  These values currently only include a subset of arrays which are explicitly tracked.
  The "true" memory usage will be greater.
------------------------------------------------------------
  Available memory after initialize_scf [GB]:    923.17
  Available memory after allocating mixing [GB]:    923.17
  Evaluating new KS density.
  Integration grid: deviation in total charge (<rho> - N_e) =  -7.105427E-15

  Time for density update prior                :  max(cpu_time)    wall_clock(cpu1)
  | self-consistency iterative process          :        0.042 s           0.042 s
  Available memory before start of SCF loop [GB]:    923.16

------------------------------------------------------------
          Begin self-consistency iteration #    1

  Date     :  20250306, Time     :  150230.862
------------------------------------------------------------
  Pulay mixing of updated and previous charge densities.
  Available memory per node after mixing [GB]:    923.13
  Renormalizing the density to the exact electron count on the 3D integration grid.
  | Formal number of electrons (from input files) :      18.0000000000
  | Integrated number of electrons on 3D grid     :      18.0000000000
  | Charge integration error                      :      -0.0000000000
  | Normalization factor for density and gradient :       1.0000000000

  Evaluating partitioned Hartree potential by multipole expansion.
  | Original multipole sum: apparent total charge =  -0.163544E-13
  | Sum of charges compensated after spline to logarithmic grids =   0.201520E-06
  | Analytical far-field extrapolation by fixed multipoles:
  | Hartree multipole sum: apparent total charge =  -0.163759E-13
  Summing up the Hartree potential.
  Time summed over all CPUs for potential: real work        0.011 s, elapsed        0.022 s
  | RMS charge density error from multipole expansion :   0.322093E-03

  Integrating Hamiltonian matrix: batch-based integration.
  Time summed over all CPUs for integration: real work        0.638 s, elapsed        1.376 s => Consider using load balancing!

  Updating Kohn-Sham eigenvalues and eigenvectors using ELSI and the ELPA eigensolver.
  Starting ELPA eigensolver
  Finished transformation to standard eigenproblem
  | Time :     0.001 s
  Finished solving standard eigenproblem
  | Time :     0.007 s
  Finished back-transformation of eigenvectors
  | Time :     0.001 s

  Obtaining occupation numbers and electronic chemical potential using ELSI.
  | Note that, for insulating systems, the printed 'chemical potential' value is not uniquely defined.
  | It can be anywhere in the energy gap, as long as it correctly separates occupied and unoccupied states.
  | In systems with a gap, the physically relevant chemical potential is the VBM or HOMO.

  Residual electron error for mid-point Fermi level : 0.0000000000000000E+000
  ELSI found chemical potential half-way between HOMO and LUMO.
  | Chemical potential (Fermi level):    -6.15106602 eV
  Writing Kohn-Sham eigenvalues.

  State    Occupation    Eigenvalue [Ha]    Eigenvalue [eV]
      1       2.00000         -18.984153         -516.58509
      2       2.00000         -10.139415         -275.90752
      3       2.00000          -1.082636          -29.46001
      4       2.00000          -0.773434          -21.04621
      5       2.00000          -0.600610          -16.34343
      6       2.00000          -0.535233          -14.56442
      7       2.00000          -0.528397          -14.37840
      8       2.00000          -0.445540          -12.12375
      9       2.00000          -0.383444          -10.43404
     10       0.00000          -0.068651           -1.86810
     11       0.00000          -0.036435           -0.99143
     12       0.00000          -0.002799           -0.07616
     13       0.00000           0.003958            0.10771
     14       0.00000           0.022416            0.60996
     15       0.00000           0.065265            1.77594
     16       0.00000           0.073821            2.00877
     17       0.00000           0.114898            3.12653
     18       0.00000           0.126426            3.44023
     19       0.00000           0.161966            4.40731
     20       0.00000           0.173202            4.71307
     21       0.00000           0.174229            4.74102

  Highest occupied state (VBM) at    -10.43403556 eV
  | Occupation number:      2.00000000

  Lowest unoccupied state (CBM) at    -1.86809649 eV
  | Occupation number:      0.00000000

  Overall HOMO-LUMO gap:      8.56593907 eV.

  Total energy components:
  | Sum of eigenvalues            :         -66.94572068 Ha       -1821.68574608 eV
  | XC energy correction          :         -14.98218033 Ha        -407.68586966 eV
  | XC potential correction       :          19.25954489 Ha         524.07888134 eV
  | Free-atom electrostatic energy:         -52.84128012 Ha       -1437.88439089 eV
  | Hartree energy correction     :          -0.34095418 Ha          -9.27783542 eV
  | Entropy correction            :           0.00000000 Ha           0.00000000 eV
  | ---------------------------
  | Total energy                  :        -115.85059043 Ha       -3152.45496070 eV
  | Total energy, T -> 0          :        -115.85059043 Ha       -3152.45496070 eV  <-- do not rely on this value for anything but (periodic) metals
  | Electronic free energy        :        -115.85059043 Ha       -3152.45496070 eV

  Derived energy quantities:
  | Kinetic energy                :         114.56073563 Ha        3117.35622577 eV
  | Electrostatic energy          :        -215.42914572 Ha       -5862.12531681 eV
  | Energy correction for multipole
  | error in Hartree potential    :          -0.00044585 Ha          -0.01213214 eV
  | Sum of eigenvalues per atom                           :        -303.61429101 eV
  | Total energy (T->0) per atom                          :        -525.40916012 eV  <-- do not rely on this value for anything but (periodic) metals
  | Electronic free energy per atom                       :        -525.40916012 eV
  Evaluating new KS density.
  Integration grid: deviation in total charge (<rho> - N_e) =   1.776357E-14

  Self-consistency convergence accuracy:
  | Change of charge density      :  0.3859E+00
  | Change of unmixed KS density  :  0.1073E+02
  | Change of sum of eigenvalues  :  0.9599E+01 eV
  | Change of total energy        :  0.6211E+00 eV


------------------------------------------------------------
  End self-consistency iteration #     1       :  max(cpu_time)    wall_clock(cpu1)
  | Time for this iteration                     :        0.151 s           0.151 s
  | Charge density update                       :        0.041 s           0.041 s
  | Density mixing                              :        0.001 s           0.001 s
  | Hartree multipole update                    :        0.004 s           0.004 s
  | Hartree multipole summation                 :        0.024 s           0.025 s
  | Integration                                 :        0.070 s           0.069 s
  | Solution of K.-S. eqns.                     :        0.011 s           0.011 s
  | Total energy evaluation                     :        0.000 s           0.000 s

  Partial memory accounting:
  | Current value for overall tracked memory usage:
  |   Minimum:        2.757 MB (on task 19)
  |   Maximum:        2.871 MB (on task  5)
  |   Average:        2.798 MB
  | Peak value for overall tracked memory usage:
  |   Minimum:        3.599 MB (on task 19 after allocating gradient_basis_wave)
  |   Maximum:        3.714 MB (on task  5 after allocating gradient_basis_wave)
  |   Average:        3.640 MB
  | Largest tracked array allocation so far:
  |   Minimum:        0.869 MB (previous_rho_gradient_diff on task 14)
  |   Maximum:        0.903 MB (previous_rho_gradient_diff on task  5)
  |   Average:        0.879 MB
  Note:  These values currently only include a subset of arrays which are explicitly tracked.
  The "true" memory usage will be greater.
------------------------------------------------------------

------------------------------------------------------------
          Begin self-consistency iteration #    2

  Date     :  20250306, Time     :  150231.014
------------------------------------------------------------
  Pulay mixing of updated and previous charge densities.
  Available memory per node after mixing [GB]:    923.58
  Renormalizing the density to the exact electron count on the 3D integration grid.
  | Formal number of electrons (from input files) :      18.0000000000
  | Integrated number of electrons on 3D grid     :      18.0000000000
  | Charge integration error                      :       0.0000000000
  | Normalization factor for density and gradient :       1.0000000000

  Evaluating partitioned Hartree potential by multipole expansion.
  | Original multipole sum: apparent total charge =  -0.139961E-13
  | Sum of charges compensated after spline to logarithmic grids =   0.812011E-06
  | Analytical far-field extrapolation by fixed multipoles:
  | Hartree multipole sum: apparent total charge =  -0.135534E-13
  Summing up the Hartree potential.
  Time summed over all CPUs for potential: real work        0.011 s, elapsed        0.026 s
  | RMS charge density error from multipole expansion :   0.282892E-02

  Integrating Hamiltonian matrix: batch-based integration.
  Time summed over all CPUs for integration: real work        0.648 s, elapsed        1.460 s => Consider using load balancing!

  Updating Kohn-Sham eigenvalues and eigenvectors using ELSI and the ELPA eigensolver.
  Starting ELPA eigensolver
  Finished transformation to standard eigenproblem
  | Time :     0.001 s
  Finished solving standard eigenproblem
  | Time :     0.007 s
  Finished back-transformation of eigenvectors
  | Time :     0.001 s

  Obtaining occupation numbers and electronic chemical potential using ELSI.
  | Note that, for insulating systems, the printed 'chemical potential' value is not uniquely defined.
  | It can be anywhere in the energy gap, as long as it correctly separates occupied and unoccupied states.
  | In systems with a gap, the physically relevant chemical potential is the VBM or HOMO.

  Residual electron error for mid-point Fermi level : 0.0000000000000000E+000
  ELSI found chemical potential half-way between HOMO and LUMO.
  | Chemical potential (Fermi level):    -3.87969811 eV
  Highest occupied state (VBM) at     -6.92277871 eV
  | Occupation number:      2.00000000

  Lowest unoccupied state (CBM) at    -0.83661750 eV
  | Occupation number:      0.00000000

  Overall HOMO-LUMO gap:      6.08616121 eV.

  Checking to see if s.c.f. parameters should be adjusted.
  The system likely has a gap. Increased the default Pulay mixing parameter (charge_mix_param). Value:   0.200000 .
  Kept the default occupation width. Value:   0.010000 eV.

  Total energy components:
  | Sum of eigenvalues            :         -64.38642630 Ha       -1752.04380254 eV
  | XC energy correction          :         -15.26848719 Ha        -415.47667561 eV
  | XC potential correction       :          19.63158392 Ha         534.20257845 eV
  | Free-atom electrostatic energy:         -52.84128012 Ha       -1437.88439089 eV
  | Hartree energy correction     :          -2.89961176 Ha         -78.90245046 eV
  | Entropy correction            :           0.00000000 Ha           0.00000000 eV
  | ---------------------------
  | Total energy                  :        -115.76422144 Ha       -3150.10474106 eV
  | Total energy, T -> 0          :        -115.76422144 Ha       -3150.10474106 eV  <-- do not rely on this value for anything but (periodic) metals
  | Electronic free energy        :        -115.76422144 Ha       -3150.10474106 eV

  Derived energy quantities:
  | Kinetic energy                :         115.88133618 Ha        3153.29159515 eV
  | Electrostatic energy          :        -216.37707044 Ha       -5887.91966059 eV
  | Energy correction for multipole
  | error in Hartree potential    :          -0.00385055 Ha          -0.10477871 eV
  | Sum of eigenvalues per atom                           :        -292.00730042 eV
  | Total energy (T->0) per atom                          :        -525.01745684 eV  <-- do not rely on this value for anything but (periodic) metals
  | Electronic free energy per atom                       :        -525.01745684 eV
  Evaluating new KS density.
  Integration grid: deviation in total charge (<rho> - N_e) =  -3.552714E-15

  Self-consistency convergence accuracy:
  | Change of charge density      :  0.3511E+00
  | Change of unmixed KS density  :  0.2557E-01
  | Change of sum of eigenvalues  :  0.6964E+02 eV
  | Change of total energy        :  0.2350E+01 eV


------------------------------------------------------------
  End self-consistency iteration #     2       :  max(cpu_time)    wall_clock(cpu1)
  | Time for this iteration                     :        0.157 s           0.156 s
  | Charge density update                       :        0.038 s           0.038 s
  | Density mixing                              :        0.002 s           0.001 s
  | Hartree multipole update                    :        0.005 s           0.005 s
  | Hartree multipole summation                 :        0.028 s           0.028 s
  | Integration                                 :        0.074 s           0.074 s
  | Solution of K.-S. eqns.                     :        0.010 s           0.010 s
  | Total energy evaluation                     :        0.000 s           0.000 s

  Partial memory accounting:
  | Current value for overall tracked memory usage:
  |   Minimum:        2.757 MB (on task 19)
  |   Maximum:        2.872 MB (on task  5)
  |   Average:        2.798 MB
  | Peak value for overall tracked memory usage:
  |   Minimum:        3.599 MB (on task 19 after allocating gradient_basis_wave)
  |   Maximum:        3.714 MB (on task  5 after allocating gradient_basis_wave)
  |   Average:        3.641 MB
  | Largest tracked array allocation so far:
  |   Minimum:        0.869 MB (previous_rho_gradient_diff on task 14)
  |   Maximum:        0.903 MB (previous_rho_gradient_diff on task  5)
  |   Average:        0.879 MB
  Note:  These values currently only include a subset of arrays which are explicitly tracked.
  The "true" memory usage will be greater.
------------------------------------------------------------

------------------------------------------------------------
          Begin self-consistency iteration #    3

  Date     :  20250306, Time     :  150231.171
------------------------------------------------------------
  Pulay mixing of updated and previous charge densities.
  Available memory per node after mixing [GB]:    923.57
  Renormalizing the density to the exact electron count on the 3D integration grid.
  | Formal number of electrons (from input files) :      18.0000000000
  | Integrated number of electrons on 3D grid     :      18.0000000000
  | Charge integration error                      :      -0.0000000000
  | Normalization factor for density and gradient :       1.0000000000

  Evaluating partitioned Hartree potential by multipole expansion.
  | Original multipole sum: apparent total charge =  -0.472277E-14
  | Sum of charges compensated after spline to logarithmic grids =  -0.162237E-06
  | Analytical far-field extrapolation by fixed multipoles:
  | Hartree multipole sum: apparent total charge =  -0.517782E-14
  Summing up the Hartree potential.
  Time summed over all CPUs for potential: real work        0.011 s, elapsed        0.021 s
  | RMS charge density error from multipole expansion :   0.395234E-02

  Integrating Hamiltonian matrix: batch-based integration.
  Time summed over all CPUs for integration: real work        0.637 s, elapsed        1.308 s => Consider using load balancing!

  Updating Kohn-Sham eigenvalues and eigenvectors using ELSI and the ELPA eigensolver.
  Starting ELPA eigensolver
  Finished transformation to standard eigenproblem
  | Time :     0.001 s
  Finished solving standard eigenproblem
  | Time :     0.007 s
  Finished back-transformation of eigenvectors
  | Time :     0.001 s

  Obtaining occupation numbers and electronic chemical potential using ELSI.
  | Note that, for insulating systems, the printed 'chemical potential' value is not uniquely defined.
  | It can be anywhere in the energy gap, as long as it correctly separates occupied and unoccupied states.
  | In systems with a gap, the physically relevant chemical potential is the VBM or HOMO.

  Residual electron error for mid-point Fermi level : 0.0000000000000000E+000
  ELSI found chemical potential half-way between HOMO and LUMO.
  | Chemical potential (Fermi level):    -4.44403271 eV
  Highest occupied state (VBM) at     -7.95643589 eV
  | Occupation number:      2.00000000

  Lowest unoccupied state (CBM) at    -0.93162953 eV
  | Occupation number:      0.00000000

  Overall HOMO-LUMO gap:      7.02480635 eV.

  Total energy components:
  | Sum of eigenvalues            :         -65.09245175 Ha       -1771.25573273 eV
  | XC energy correction          :         -15.21318007 Ha        -413.97169239 eV
  | XC potential correction       :          19.55729429 Ha         532.18105465 eV
  | Free-atom electrostatic energy:         -52.84128012 Ha       -1437.88439089 eV
  | Hartree energy correction     :          -2.17651974 Ha         -59.22611556 eV
  | Entropy correction            :           0.00000000 Ha           0.00000000 eV
  | ---------------------------
  | Total energy                  :        -115.76613740 Ha       -3150.15687692 eV
  | Total energy, T -> 0          :        -115.76613740 Ha       -3150.15687692 eV  <-- do not rely on this value for anything but (periodic) metals
  | Electronic free energy        :        -115.76613740 Ha       -3150.15687692 eV

  Derived energy quantities:
  | Kinetic energy                :         115.18969738 Ha        3134.47114593 eV
  | Electrostatic energy          :        -215.74265471 Ha       -5870.65633046 eV
  | Energy correction for multipole
  | error in Hartree potential    :          -0.00443859 Ha          -0.12078021 eV
  | Sum of eigenvalues per atom                           :        -295.20928879 eV
  | Total energy (T->0) per atom                          :        -525.02614615 eV  <-- do not rely on this value for anything but (periodic) metals
  | Electronic free energy per atom                       :        -525.02614615 eV
  Evaluating new KS density.
  Integration grid: deviation in total charge (<rho> - N_e) =  -7.105427E-15

  Self-consistency convergence accuracy:
  | Change of charge density      :  0.1737E+00
  | Change of unmixed KS density  :  0.1926E+00
  | Change of sum of eigenvalues  : -0.1921E+02 eV
  | Change of total energy        : -0.5214E-01 eV


------------------------------------------------------------
  End self-consistency iteration #     3       :  max(cpu_time)    wall_clock(cpu1)
  | Time for this iteration                     :        0.146 s           0.145 s
  | Charge density update                       :        0.040 s           0.040 s
  | Density mixing                              :        0.002 s           0.002 s
  | Hartree multipole update                    :        0.004 s           0.004 s
  | Hartree multipole summation                 :        0.022 s           0.023 s
  | Integration                                 :        0.067 s           0.066 s
  | Solution of K.-S. eqns.                     :        0.010 s           0.010 s
  | Total energy evaluation                     :        0.000 s           0.000 s

  Partial memory accounting:
  | Current value for overall tracked memory usage:
  |   Minimum:        2.757 MB (on task 19)
  |   Maximum:        2.872 MB (on task  5)
  |   Average:        2.798 MB
  | Peak value for overall tracked memory usage:
  |   Minimum:        3.599 MB (on task 19 after allocating gradient_basis_wave)
  |   Maximum:        3.714 MB (on task  5 after allocating gradient_basis_wave)
  |   Average:        3.641 MB
  | Largest tracked array allocation so far:
  |   Minimum:        0.869 MB (previous_rho_gradient_diff on task 14)
  |   Maximum:        0.903 MB (previous_rho_gradient_diff on task  5)
  |   Average:        0.879 MB
  Note:  These values currently only include a subset of arrays which are explicitly tracked.
  The "true" memory usage will be greater.
------------------------------------------------------------

------------------------------------------------------------
          Begin self-consistency iteration #    4

  Date     :  20250306, Time     :  150231.317
------------------------------------------------------------
  Pulay mixing of updated and previous charge densities.
  Available memory per node after mixing [GB]:    923.57
  Renormalizing the density to the exact electron count on the 3D integration grid.
  | Formal number of electrons (from input files) :      18.0000000000
  | Integrated number of electrons on 3D grid     :      18.0000000000
  | Charge integration error                      :      -0.0000000000
  | Normalization factor for density and gradient :       1.0000000000

  Evaluating partitioned Hartree potential by multipole expansion.
  | Original multipole sum: apparent total charge =  -0.213262E-13
  | Sum of charges compensated after spline to logarithmic grids =  -0.244541E-06
  | Analytical far-field extrapolation by fixed multipoles:
  | Hartree multipole sum: apparent total charge =  -0.214000E-13
  Summing up the Hartree potential.
  Time summed over all CPUs for potential: real work        0.010 s, elapsed        0.020 s
  | RMS charge density error from multipole expansion :   0.519859E-02

  Integrating Hamiltonian matrix: batch-based integration.
  Time summed over all CPUs for integration: real work        0.625 s, elapsed        1.241 s => Consider using load balancing!

  Updating Kohn-Sham eigenvalues and eigenvectors using ELSI and the ELPA eigensolver.
  Starting ELPA eigensolver
  Finished transformation to standard eigenproblem
  | Time :     0.001 s
  Finished solving standard eigenproblem
  | Time :     0.006 s
  Finished back-transformation of eigenvectors
  | Time :     0.001 s

  Obtaining occupation numbers and electronic chemical potential using ELSI.
  | Note that, for insulating systems, the printed 'chemical potential' value is not uniquely defined.
  | It can be anywhere in the energy gap, as long as it correctly separates occupied and unoccupied states.
[...]
  | It can be anywhere in the energy gap, as long as it correctly separates occupied and unoccupied states.
  | In systems with a gap, the physically relevant chemical potential is the VBM or HOMO.

  Residual electron error for mid-point Fermi level : 0.0000000000000000E+000
  ELSI found chemical potential half-way between HOMO and LUMO.
  | Chemical potential (Fermi level):    -3.35606147 eV
  Highest occupied state (VBM) at     -6.29028418 eV
  | Occupation number:      2.00000000

  Lowest unoccupied state (CBM) at    -0.42183877 eV
  | Occupation number:      0.00000000

  Overall HOMO-LUMO gap:      5.86844541 eV.

  Total energy components:
  | Sum of eigenvalues            :         -64.04575828 Ha       -1742.77375423 eV
  | XC energy correction          :         -15.35679525 Ha        -417.87966012 eV
  | XC potential correction       :          19.74353200 Ha         537.24884055 eV
  | Free-atom electrostatic energy:         -52.82252475 Ha       -1437.37403113 eV
  | Hartree energy correction     :          -3.27155372 Ha         -89.02350606 eV
  | Entropy correction            :           0.00000000 Ha           0.00000000 eV
  | ---------------------------
  | Total energy                  :        -115.75309999 Ha       -3149.80211099 eV
  | Total energy, T -> 0          :        -115.75309999 Ha       -3149.80211099 eV  <-- do not rely on this value for anything but (periodic) metals
  | Electronic free energy        :        -115.75309999 Ha       -3149.80211099 eV

  Derived energy quantities:
  | Kinetic energy                :         115.40895400 Ha        3140.43742199 eV
  | Electrostatic energy          :        -215.80525875 Ha       -5872.35987285 eV
  | Energy correction for multipole
  | error in Hartree potential    :          -0.00650820 Ha          -0.17709714 eV
  | Sum of eigenvalues per atom                           :        -290.46229237 eV
  | Total energy (T->0) per atom                          :        -524.96701850 eV  <-- do not rely on this value for anything but (periodic) metals
  | Electronic free energy per atom                       :        -524.96701850 eV
  Evaluating new KS density and force components.
  Integration grid: deviation in total charge (<rho> - N_e) =   1.421085E-14

  atomic forces [eV/Ang]:
  -----------------------
  atom #    1
   Hellmann-Feynman              :  0.110368E+02  0.131442E+02  0.442345E+01
   Ionic forces                  :  0.000000E+00  0.000000E+00  0.000000E+00
   Multipole                     : -0.130922E+00 -0.233761E+00 -0.786330E-01
   Hartree pot. SCF incomplete   : -0.666527E-05 -0.180375E-04 -0.246752E-05
   Pulay + GGA                   : -0.109055E+02 -0.129109E+02 -0.434456E+01
   ----------------------------------------------------------------
   Total forces(   1)            :  0.430371E-03 -0.519649E-03  0.258104E-03
  atom #    2
   Hellmann-Feynman              : -0.227580E+01  0.159290E+00  0.530795E-01
   Ionic forces                  :  0.000000E+00  0.000000E+00  0.000000E+00
   Multipole                     : -0.859545E-01 -0.366658E-01 -0.123115E-01
   Hartree pot. SCF incomplete   : -0.104958E-05 -0.991808E-05 -0.100050E-04
   Pulay + GGA                   :  0.236098E+01 -0.122438E+00 -0.407141E-01
   ----------------------------------------------------------------
   Total forces(   2)            : -0.780392E-03  0.175820E-03  0.438480E-04
  atom #    3
   Hellmann-Feynman              :  0.617716E-01  0.238021E-01 -0.221501E-02
   Ionic forces                  :  0.000000E+00  0.000000E+00  0.000000E+00
   Multipole                     : -0.941926E-02  0.244141E-01 -0.281222E-01
   Hartree pot. SCF incomplete   :  0.250626E-05 -0.163624E-05 -0.127774E-05
   Pulay + GGA                   : -0.530209E-01 -0.481797E-01  0.307781E-01
   ----------------------------------------------------------------
   Total forces(   3)            : -0.666130E-03  0.348941E-04  0.439696E-03
  atom #    4
   Hellmann-Feynman              :  0.619729E-01  0.172843E-01  0.164823E-01
   Ionic forces                  :  0.000000E+00  0.000000E+00  0.000000E+00
   Multipole                     : -0.938286E-02  0.229491E-02  0.371795E-01
   Hartree pot. SCF incomplete   :  0.697078E-06 -0.205207E-06  0.132249E-05
   Pulay + GGA                   : -0.531327E-01 -0.195607E-01 -0.536715E-01
   ----------------------------------------------------------------
   Total forces(   4)            : -0.541935E-03  0.183179E-04 -0.839178E-05
  atom #    5
   Hellmann-Feynman              :  0.715222E-01 -0.255071E-01 -0.867089E-02
   Ionic forces                  :  0.000000E+00  0.000000E+00  0.000000E+00
   Multipole                     : -0.199326E-01 -0.377515E-01 -0.128070E-01
   Hartree pot. SCF incomplete   : -0.105125E-05 -0.442679E-06  0.396343E-06
   Pulay + GGA                   : -0.513407E-01  0.638817E-01  0.216729E-01
   ----------------------------------------------------------------
   Total forces(   5)            :  0.247821E-03  0.622635E-03  0.195394E-03
  atom #    6
   Hellmann-Feynman              : -0.475620E-01  0.579033E-01  0.191270E-01
   Ionic forces                  :  0.000000E+00  0.000000E+00  0.000000E+00
   Multipole                     :  0.236569E-01  0.112165E-01  0.375024E-02
   Hartree pot. SCF incomplete   : -0.259097E-05 -0.953825E-07  0.360607E-06
   Pulay + GGA                   :  0.235468E-01 -0.694099E-01 -0.233766E-01
   ----------------------------------------------------------------
   Total forces(   6)            : -0.360880E-03 -0.290173E-03 -0.499009E-03


  Self-consistency convergence accuracy:
  | Change of charge density      :  0.5834E-06
  | Change of unmixed KS density  :  0.8361E-06
  | Change of sum of eigenvalues  :  0.2565E-04 eV
  | Change of total energy        : -0.4546E-08 eV
  | Change of forces              :  0.9945E+00 eV/A

  Writing Kohn-Sham eigenvalues.

  State    Occupation    Eigenvalue [Ha]    Eigenvalue [eV]
      1       2.00000         -18.783737         -511.13150
      2       2.00000          -9.934218         -270.32384
      3       2.00000          -0.933966          -25.41452
      4       2.00000          -0.618094          -16.81920
      5       2.00000          -0.458300          -12.47098
      6       2.00000          -0.389521          -10.59941
      7       2.00000          -0.379417          -10.32446
      8       2.00000          -0.294461           -8.01270
      9       2.00000          -0.231164           -6.29028
     10       0.00000          -0.015502           -0.42184
     11       0.00000           0.011735            0.31932
     12       0.00000           0.042666            1.16100
     13       0.00000           0.046559            1.26693
     14       0.00000           0.101062            2.75003
     15       0.00000           0.122380            3.33012
     16       0.00000           0.140641            3.82703
     17       0.00000           0.164504            4.47638
     18       0.00000           0.193983            5.27855
     19       0.00000           0.221391            6.02435
     20       0.00000           0.224509            6.10921
     21       0.00000           0.232945            6.33876

  Highest occupied state (VBM) at     -6.29028418 eV
  | Occupation number:      2.00000000

  Lowest unoccupied state (CBM) at    -0.42183877 eV
  | Occupation number:      0.00000000

  Overall HOMO-LUMO gap:      5.86844541 eV.

  | Chemical Potential                          :    -3.35606147 eV
  | Note that, for insulating systems, the printed 'chemical potential' value is not uniquely defined.
  | It can be anywhere in the energy gap, as long as it correctly separates occupied and unoccupied states.
  | In systems with a gap, the physically relevant chemical potential is the VBM or HOMO.

  Self-consistency cycle converged.


------------------------------------------------------------
  End self-consistency iteration #     7       :  max(cpu_time)    wall_clock(cpu1)
  | Time for this iteration                     :        0.364 s           0.363 s
  | Charge density & force component update     :        0.198 s           0.198 s
  | Density mixing                              :        0.003 s           0.003 s
  | Hartree multipole update                    :        0.004 s           0.004 s
  | Hartree multipole summation                 :        0.057 s           0.057 s
  | Hartree pot. SCF incomplete forces          :        0.037 s           0.037 s
  | Integration                                 :        0.056 s           0.056 s
  | Solution of K.-S. eqns.                     :        0.007 s           0.008 s
  | Total energy evaluation                     :        0.000 s           0.000 s

  Partial memory accounting:
  | Current value for overall tracked memory usage:
  |   Minimum:        2.761 MB (on task 17)
  |   Maximum:        2.865 MB (on task 19)
  |   Average:        2.806 MB
  | Peak value for overall tracked memory usage:
  |   Minimum:        5.105 MB (on task 16 after allocating hessian_basis_wave)
  |   Maximum:        5.198 MB (on task  3 after allocating hessian_basis_wave)
  |   Average:        5.154 MB
  | Largest tracked array allocation so far:
  |   Minimum:        1.263 MB (hessian_basis_wave on task  0)
  |   Maximum:        1.263 MB (hessian_basis_wave on task  0)
  |   Average:        1.263 MB
  Note:  These values currently only include a subset of arrays which are explicitly tracked.
  The "true" memory usage will be greater.
------------------------------------------------------------
  Removing unitary transformations (pure translations, rotations) from forces on atoms.
  Atomic forces before filtering:
  | Net force on center of mass :  -0.167114E-02  0.418454E-04  0.429641E-03 eV/A
  | Net torque on center of mass:   0.509539E-04  0.108782E-02 -0.243156E-02 eV
  Atomic forces after filtering:
  | Net force on center of mass :   0.566230E-18 -0.653343E-19 -0.130669E-18 eV/A
  | Net torque on center of mass:   0.541650E-18  0.460979E-18 -0.253538E-18 eV

  Energy and forces in a compact form:
  | Total energy uncorrected      :         -0.314980211098682E+04 eV
  | Total energy corrected        :         -0.314980211098682E+04 eV  <-- do not rely on this value for anything but (periodic) metals
  | Electronic free energy        :         -0.314980211098682E+04 eV
  Total atomic forces (unitary forces cleaned) [eV/Ang]:
  |    1          0.650699623348292E-03         -0.154352213979087E-03          0.356967942831626E-03
  |    2         -0.552511295592101E-03          0.543983371019556E-04         -0.803863888342391E-04
  |    3         -0.289276974293587E-03         -0.226154464376392E-03          0.251930107322573E-03
  |    4         -0.957066537198747E-04         -0.244769841884745E-03         -0.196869898122709E-03
  |    5          0.854889774892412E-04          0.389272022883164E-03          0.185935093150181E-04
  |    6          0.201306322768031E-03          0.181606160255104E-03         -0.350235272512269E-03

  ------------------------------------ 
  Start decomposition of the XC Energy 
  ------------------------------------ 
  X and C from original XC functional choice 
  Hartree-Fock Energy :          0.000000000 Ha              0.000000000 eV
  X Energy            :        -14.777087404 Ha           -402.105007139 eV
  C Energy            :         -0.579707842 Ha            -15.774652986 eV
  XC Energy w/o HF    :        -15.356795246 Ha           -417.879660125 eV
  Total XC Energy     :        -15.356795246 Ha           -417.879660125 eV
  ------------------------------------ 
  LDA X and C from self-consistent density 
  X Energy LDA        :        -13.399031565 Ha           -364.606199844 eV
  C Energy LDA        :         -1.154172129 Ha            -31.406621594 eV
  ------------------------------------ 
  End decomposition of the XC Energy 
  ------------------------------------ 

------------------------------------------------------------
  Relaxation / MD: End force evaluation.       :  max(cpu_time)    wall_clock(cpu1)
  | Time for this force evaluation              :        1.261 s           1.266 s

------------------------------------------------------------
  Geometry optimization: Attempting to predict improved coordinates.

  Removing unitary transformations (pure translations, rotations) from forces on atoms.
  Atomic forces before filtering:
  | Net force on center of mass :   0.566230E-18 -0.653343E-19 -0.130669E-18 eV/A
  | Net torque on center of mass:   0.541650E-18  0.460979E-18 -0.253538E-18 eV
  Atomic forces after filtering:
  | Net force on center of mass :   0.871124E-19 -0.217781E-19  0.871124E-19 eV/A
  | Net torque on center of mass:   0.138294E-18  0.921958E-19  0.000000E+00 eV
  Net remaining forces (excluding translations, rotations) in present geometry:
  || Forces on atoms   || =   0.650700E-03 eV/A.
  Maximum force component is  0.650700E-03 eV/A.
  Present geometry is converged.

------------------------------------------------------------
  Final atomic structure:
                         x [A]             y [A]             z [A]
            atom         0.72200986        0.00370110        0.00065084  O
            atom        -0.70501121       -0.01565644       -0.00542698  C
            atom        -1.11660934       -0.76963324        0.68649909  H
            atom        -1.11714507       -0.19398297       -1.01292366  H
            atom        -1.03429517        0.97461596        0.33010983  H
            atom         1.03515095       -0.86454440       -0.29180913  H
------------------------------------------------------------

------------------------------------------------------------------------------
  Final output of selected total energy values:

  The following output summarizes some interesting total energy values
  at the end of a run (AFTER all relaxation, molecular dynamics, etc.).

  | Total energy of the DFT / Hartree-Fock s.c.f. calculation      :          -3149.802110987 eV
  | Final zero-broadening corrected energy (caution - metals only) :          -3149.802110987 eV
  | For reference only, the value of 1 Hartree used in FHI-aims is :             27.211384500 eV

  Before relying on these values, please be sure to understand exactly which
  total energy value is referred to by a given number. Different objects may
  all carry the same name 'total energy'. Definitions:

  Total energy of the DFT / Hartree-Fock s.c.f. calculation:
  | Note that this energy does not include ANY quantities calculated after the
  | s.c.f. cycle, in particular not ANY RPA, MP2, etc. many-body perturbation terms.

  Final zero-broadening corrected energy:
  | For metallic systems only, a broadening of the occupation numbers at the Fermi
  | level can be extrapolated back to zero broadening by an electron-gas inspired
  | formula. For all systems that are not real metals, this value can be
  | meaningless and should be avoided.

------------------------------------------------------------------------------
  Methods described in the following list of references were used in this FHI-aims run.
  If you publish the results, please make sure to cite these reference if they apply.
  FHI-aims is an academic code, and for our developers (often, Ph.D. students
  and postdocs), scientific credit in the community is essential.
  Thank you for helping us!

  For any use of FHI-aims, please cite:

    Volker Blum, Ralf Gehrke, Felix Hanke, Paula Havu, Ville Havu,
    Xinguo Ren, Karsten Reuter, and Matthias Scheffler
    'Ab initio molecular simulations with numeric atom-centered orbitals'
    Computer Physics Communications 180, 2175-2196 (2009)
    http://doi.org/10.1016/j.cpc.2009.06.022


  The ELSI infrastructure was used in your run to solve the Kohn-Sham electronic structure.
  Please check out https://wordpress.elsi-interchange.org to learn more.
  If scalability is important for your project, please acknowledge ELSI by citing:

    V. W-z. Yu, F. Corsetti, A. Garcia, W. P. Huhn, M. Jacquelin, W. Jia,
    B. Lange, L. Lin, J. Lu, W. Mi, A. Seifitokaldani, A. Vazquez-Mayagoitia,
    C. Yang, H. Yang, and V. Blum
    'ELSI: A unified software interface for Kohn-Sham electronic structure solvers'
    Computer Physics Communications 222, 267-285 (2018).
    http://doi.org/10.1016/j.cpc.2017.09.007


  For the real-space grid partitioning and parallelization used in this calculation, please cite:

    Ville Havu, Volker Blum, Paula Havu, and Matthias Scheffler,
    'Efficient O(N) integration for all-electron electronic structure calculation'
    'using numerically tabulated basis functions'
    Journal of Computational Physics 228, 8367-8379 (2009).
    http://doi.org/10.1016/j.jcp.2009.08.008

  Of course, there are many other important community references, e.g., those cited in the
  above references. Our list is limited to references that describe implementations in the
  FHI-aims code. The reason is purely practical (length of this list) - please credit others as well.

------------------------------------------------------------
          Leaving FHI-aims.
          Date     :  20250306, Time     :  150238.402

          Computational steps:
          | Number of self-consistency cycles          :           43
          | Number of SCF (re)initializations          :            5
          | Number of relaxation steps                 :            4

          Detailed time accounting                     :  max(cpu_time)    wall_clock(cpu1)
          | Total time                                  :        8.305 s           8.307 s
          | Preparation time                            :        0.313 s           0.312 s
          | Boundary condition initalization            :        0.095 s           0.083 s
          | Grid partitioning                           :        0.207 s           0.206 s
          | Preloading free-atom quantities on grid     :        0.109 s           0.110 s
          | Free-atom superposition energy              :        0.029 s           0.031 s
          | Total time for integrations                 :        2.809 s           2.806 s
          | Total time for solution of K.-S. equations  :        0.419 s           0.422 s
          | Total time for EV reorthonormalization      :        0.006 s           0.006 s
          | Total time for density & force components   :        2.546 s           2.547 s
          | Total time for mixing                       :        0.086 s           0.083 s
          | Total time for Hartree multipole update     :        0.172 s           0.174 s
          | Total time for Hartree multipole sum        :        1.064 s           1.068 s
          | Total time for total energy evaluation      :        0.005 s           0.005 s
          | Total time NSC force correction             :        0.175 s           0.176 s
          | Total time for scaled ZORA corrections      :        0.000 s           0.000 s

          Partial memory accounting:
          | Residual value for overall tracked memory usage across tasks:     0.000000 MB (should be 0.000000 MB)
          | Peak values for overall tracked memory usage:
          |   Minimum:        5.105 MB (on task 16 after allocating hessian_basis_wave)
          |   Maximum:        5.198 MB (on task  3 after allocating hessian_basis_wave)
          |   Average:        5.154 MB
          | Largest tracked array allocation:
          |   Minimum:        1.263 MB (hessian_basis_wave on task  0)
          |   Maximum:        1.263 MB (hessian_basis_wave on task  0)
          |   Average:        1.263 MB
          Note:  These values currently only include a subset of arrays which are explicitly tracked.
          The "true" memory usage will be greater.

          Have a nice day.
------------------------------------------------------------
