------------------------------------------------------------
          Invoking FHI-aims ...

          When using FHI-aims, please cite the following reference:

            Volker Blum, Ralf Gehrke, Felix Hanke, Paula Havu,
            Ville Havu, Xinguo Ren, Karsten Reuter, and Matthias Scheffler,
            'Ab Initio Molecular Simulations with Numeric Atom-Centered Orbitals',
            Computer Physics Communications 180, 2175-2196 (2009)

          In addition, many other developments in FHI-aims are likely important for
          your particular application. If so, please cite them. A partial list of references
          is written at the end of this file. Thank you for giving credit to the authors
          of these developments.

          For general information about FHI-aims please find us at

            https://fhi-aims.org

          Online tutorials can be found at

            https://fhi-aims-club.gitlab.io/tutorials/tutorials-overview/

          For any questions about FHI-aims, please visit our slack channel at

            https://fhi-aims.slack.com

          and our main development and support site at

            https://aims-git.rz-berlin.mpg.de .

          The latter site, in particular, has a wiki to collect information, as well
          as an issue tracker to log discussions, suggest improvements, and report issues
          or bugs. https://aims-git.rz-berlin.mpg.de is also the main development site
          of the project and all new and updated code versions can be obtained there.
          Please send an email to aims-coordinators@fhi-berlin.mpg.de and we will add
          you to these sites. They are for you and everyone is welcome there.

------------------------------------------------------------



  Date     :  20250311, Time     :  155859.018
  Time zero on CPU 1             :   0.428220000000000E+00  s.
  Internal wall clock time zero  :           510940739.018  s.

  FHI-aims created a unique identifier for this run for later identification
  aims_uuid : 4E578539-EC2C-4FDF-A1BE-C98718681823

  Build configuration of the current instance of FHI-aims
  -------------------------------------------------------
  FHI-aims version      : 240605
  Commit number         : b001b2e18
  CMake host system     : Linux-6.5.0-41-generic
  CMake version         : 3.22.1
  Fortran compiler      : /opt/intel/oneapi/mpi/2021.12/bin/mpiifort (IntelLLVM) version 2024.1.0
  Fortran compiler flags: -fc=ifx -O3 -ip -fp-model precise
  C compiler            : /opt/intel/oneapi/mpi/2021.12/bin/mpiicc (IntelLLVM) version 2024.1.0
  C compiler flags      : -cc=icx -O3 -ip -fp-model precise -std=gnu99
  C++ compiler          : /opt/intel/oneapi/mpi/2021.12/bin/mpiicpc (IntelLLVM) version 2024.1.0
  C++ compiler flags    : -cxx=icpx -O3 -ip -fp-model precise -std=c++11
  HIP compiler          :
  HIP compiler flags    :
  HIP GPU arch          :
  Using MPI
  Using ScaLAPACK
  Using LibXC
  Using i-PI
  Using RLSY
  Linking against: /opt/intel/oneapi/mkl/2024.1/lib/intel64/libmkl_intel_lp64.so
                   /opt/intel/oneapi/mkl/2024.1/lib/intel64/libmkl_sequential.so
                   /opt/intel/oneapi/mkl/2024.1/lib/intel64/libmkl_core.so
                   /opt/intel/oneapi/mkl/2024.1/lib/intel64/libmkl_blacs_intelmpi_lp64.so
                   /opt/intel/oneapi/mkl/2024.1/lib/intel64/libmkl_scalapack_lp64.so
                   /opt/intel/oneapi/mkl/2024.1/lib/intel64/libmkl_core.so

  Using       32 parallel tasks.
  Task        0 on host RSL-arvutus reporting.
  Task        1 on host RSL-arvutus reporting.
  Task        2 on host RSL-arvutus reporting.
  Task        3 on host RSL-arvutus reporting.
  Task        4 on host RSL-arvutus reporting.
  Task        5 on host RSL-arvutus reporting.
  Task        6 on host RSL-arvutus reporting.
  Task        7 on host RSL-arvutus reporting.
  Task        8 on host RSL-arvutus reporting.
  Task        9 on host RSL-arvutus reporting.
  Task       10 on host RSL-arvutus reporting.
  Task       11 on host RSL-arvutus reporting.
  Task       12 on host RSL-arvutus reporting.
  Task       13 on host RSL-arvutus reporting.
  Task       14 on host RSL-arvutus reporting.
  Task       15 on host RSL-arvutus reporting.
  Task       16 on host RSL-arvutus reporting.
  Task       17 on host RSL-arvutus reporting.
  Task       18 on host RSL-arvutus reporting.
  Task       19 on host RSL-arvutus reporting.
  Task       20 on host RSL-arvutus reporting.
  Task       21 on host RSL-arvutus reporting.
  Task       22 on host RSL-arvutus reporting.
  Task       23 on host RSL-arvutus reporting.
  Task       24 on host RSL-arvutus reporting.
  Task       25 on host RSL-arvutus reporting.
  Task       26 on host RSL-arvutus reporting.
  Task       27 on host RSL-arvutus reporting.
  Task       28 on host RSL-arvutus reporting.
  Task       29 on host RSL-arvutus reporting.
  Task       30 on host RSL-arvutus reporting.
  Task       31 on host RSL-arvutus reporting.

  Memory overcommitment is allowed on your operating system.

  Obtaining array dimensions for all initial allocations:
  
  -----------------------------------------------------------------------
  Parsing control.in (first pass over file, find array dimensions only).
  The contents of control.in will be repeated verbatim below
  unless switched off by setting 'verbatim_writeout .false.' .
  in the first line of control.in .
  -----------------------------------------------------------------------
  
  xc                 pbe
  relativistic       zora scalar 1.0e-12
  spin               collinear
  charge             1.0
  default_initial_moment  1.0
  KS_method          serial
  force_occupation_basis 1 1 atomic 1 0 0 0.0 5
  ################################################################################
  #
  #  FHI-aims code project
  #  Volker Blum, Fritz Haber Institute Berlin, 2009
  #
  #  Suggested "tight" defaults for H atom (to be pasted into control.in file)
  #
  ################################################################################
    species        H
  #     global species definitions
      nucleus             1
      mass                1.00794
  #
      l_hartree           6
  #
      cut_pot             4.0  2.0  1.0
      basis_dep_cutoff    1e-4
  #
      radial_base         24 7.0
      radial_multiplier   2
      angular_grids       specified
        division   0.1930   50
        division   0.3175  110
        division   0.4293  194
        division   0.5066  302
        division   0.5626  434
  #      division   0.5922  590
  #      division   0.6227  974
  #      division   0.6868 1202
  #      outer_grid  770
        outer_grid  434
  ################################################################################
  #
  #  Definition of "minimal" basis
  #
  ################################################################################
  #     valence basis states
      valence      1  s   1.
  #     ion occupancy
      ion_occ      1  s   0.5
  ################################################################################
  #
  #  Suggested additional basis functions. For production calculations,
  #  uncomment them one after another (the most important basis functions are
  #  listed first).
  #
  #  Basis constructed for dimers: 0.5 A, 0.7 A, 1.0 A, 1.5 A, 2.5 A
  #
  ################################################################################
  #  "First tier" - improvements: -1014.90 meV to -62.69 meV
       hydro 2 s 2.1
       hydro 2 p 3.5
  #  "Second tier" - improvements: -12.89 meV to -1.83 meV
       hydro 1 s 0.85
       hydro 2 p 3.7
       hydro 2 s 1.2
       hydro 3 d 7
  #  "Third tier" - improvements: -0.25 meV to -0.12 meV
  #     hydro 4 f 11.2
  #     hydro 3 p 4.8
  #     hydro 4 d 9
  #     hydro 3 s 3.2
  ################################################################################
  #
  # For methods that use the localized form of the "resolution of identity" for
  # the two-electron Coulomb operator (RI_method LVL), particularly Hartree-Fock and
  # hybrid density functional calculations, the highest accuracy can be obtained by
  # uncommenting the line beginning with "for_aux"  below, thus adding an extra g radial
  # function to the construction of the product basis set for the expansion.
  # See Ref. New J. Phys. 17, 093020 (2015) for more information, particularly Figs. 1 and 6.
  #
  ################################################################################
  #
  # for_aux hydro 5 g 6.0
  ################################################################################
  #
  #  FHI-aims code project
  #  Volker Blum, Fritz Haber Institute Berlin, 2009
  #
  #  Suggested "tight" defaults for C atom (to be pasted into control.in file)
  #
  ################################################################################
    species        C
  #     global species definitions
      nucleus             6
      mass                12.0107
  #
      l_hartree           6
  #
      cut_pot             4.0  2.0  1.0
      basis_dep_cutoff    1e-4
  #
      radial_base         34 7.0
      radial_multiplier   2
      angular_grids specified
        division   0.2187   50
        division   0.4416  110
        division   0.6335  194
        division   0.7727  302
        division   0.8772  434
  #      division   0.9334  590
  #      division   0.9924  770
  #      division   1.0230  974
  #      division   1.5020 1202
  #     outer_grid  974
        outer_grid  434
  ################################################################################
  #
  #  Definition of "minimal" basis
  #
  ################################################################################
  #     valence basis states
      valence      2  s   2.
      valence      2  p   2.
  #     ion occupancy
      ion_occ      2  s   1.
      ion_occ      2  p   1.
  ################################################################################
  #
  #  Suggested additional basis functions. For production calculations,
  #  uncomment them one after another (the most important basis functions are
  #  listed first).
  #
  #  Constructed for dimers: 1.0 A, 1.25 A, 1.5 A, 2.0 A, 3.0 A
  #
  ################################################################################
  #  "First tier" - improvements: -1214.57 meV to -155.61 meV
       hydro 2 p 1.7
       hydro 3 d 6
       hydro 2 s 4.9
  #  "Second tier" - improvements: -67.75 meV to -5.23 meV
       hydro 4 f 9.8
       hydro 3 p 5.2
       hydro 3 s 4.3
       hydro 5 g 14.4
       hydro 3 d 6.2
  #  "Third tier" - improvements: -2.43 meV to -0.60 meV
  #     hydro 2 p 5.6
  #     hydro 2 s 1.4
  #     hydro 3 d 4.9
  #     hydro 4 f 11.2
  #  "Fourth tier" - improvements: -0.39 meV to -0.18 meV
  #     hydro 2 p 2.1
  #     hydro 5 g 16.4
  #     hydro 4 d 13.2
  #     hydro 3 s 13.6
  #     hydro 4 f 17.6
  #  Further basis functions - improvements: -0.08 meV and below
  #     hydro 3 s 2
  #     hydro 3 p 6
  #     hydro 4 d 20
  ################################################################################
  #
  # For methods that use the localized form of the "resolution of identity" for
  # the two-electron Coulomb operator (RI_method LVL), particularly Hartree-Fock and
  # hybrid density functional calculations, the highest accuracy can be obtained by
  # uncommenting the line beginning with "for_aux"  below, thus adding an extra g radial
  # function to the construction of the product basis set for the expansion.
  # See Ref. New J. Phys. 17, 093020 (2015) for more information, particularly Figs. 1 and 6.
  #
  ################################################################################
  #
  # for_aux hydro 5 g 6.0
  ################################################################################
  #
  #  FHI-aims code project
  #  Volker Blum, Fritz Haber Institute Berlin, 2009
  #
  #  Suggested "tight" defaults for O atom (to be pasted into control.in file)
  #
  ################################################################################
    species        O
  #     global species definitions
      nucleus             8
      mass                15.9994
  #
      l_hartree           6
  #
      cut_pot             4.0  2.0  1.0
      basis_dep_cutoff    1e-4
  #
      radial_base         36 7.0
      radial_multiplier   2
       angular_grids specified
        division   0.1817   50
        division   0.3417  110
        division   0.4949  194
        division   0.6251  302
        division   0.8014  434
  #      division   0.8507  590
  #      division   0.8762  770
  #      division   0.9023  974
  #      division   1.2339 1202
  #      outer_grid 974
        outer_grid  434
  ################################################################################
  #
  #  Definition of "minimal" basis
  #
  ################################################################################
  #     valence basis states
      valence      2  s   2.
      valence      2  p   4.
  #     ion occupancy
      ion_occ      2  s   1.
      ion_occ      2  p   3.
  ################################################################################
  #
  #  Suggested additional basis functions. For production calculations,
  #  uncomment them one after another (the most important basis functions are
  #  listed first).
  #
  #  Constructed for dimers: 1.0 A, 1.208 A, 1.5 A, 2.0 A, 3.0 A
  #
  ################################################################################
  #  "First tier" - improvements: -699.05 meV to -159.38 meV
       hydro 2 p 1.8
       hydro 3 d 7.6
       hydro 3 s 6.4
  #  "Second tier" - improvements: -49.91 meV to -5.39 meV
       hydro 4 f 11.6
       hydro 3 p 6.2
       hydro 3 d 5.6
       hydro 5 g 17.6
       hydro 1 s 0.75
  #  "Third tier" - improvements: -2.83 meV to -0.50 meV
  #     ionic 2 p auto
  #     hydro 4 f 10.8
  #     hydro 4 d 4.7
  #     hydro 2 s 6.8
  #  "Fourth tier" - improvements: -0.40 meV to -0.12 meV
  #     hydro 3 p 5
  #     hydro 3 s 3.3
  #     hydro 5 g 15.6
  #     hydro 4 f 17.6
  #     hydro 4 d 14
  # Further basis functions - -0.08 meV and below
  #     hydro 3 s 2.1
  #     hydro 4 d 11.6
  #     hydro 3 p 16
  #     hydro 2 s 17.2
  ################################################################################
  #
  # For methods that use the localized form of the "resolution of identity" for
  # the two-electron Coulomb operator (RI_method LVL), particularly Hartree-Fock and
  # hybrid density functional calculations, the highest accuracy can be obtained by
  # uncommenting the line beginning with "for_aux"  below, thus adding an extra g radial
  # function to the construction of the product basis set for the expansion.
  # See Ref. New J. Phys. 17, 093020 (2015) for more information, particularly Figs. 1 and 6.
  #
  ################################################################################
  #
  # for_aux hydro 5 g 6.0
  
  -----------------------------------------------------------------------
  Completed first pass over input file control.in .
  -----------------------------------------------------------------------
  
  
  -----------------------------------------------------------------------
  Parsing geometry.in (first pass over file, find array dimensions only).
  The contents of geometry.in will be repeated verbatim below
  unless switched off by setting 'verbatim_writeout .false.' .
  in the first line of geometry.in .
  -----------------------------------------------------------------------
  
  #
  # This is the geometry file that corresponds to the current relaxation step.
  # If you do not want this file to be written, set the "write_restart_geometry" flag to .false.
  #  aims_uuid : 41474E25-6416-445A-AD69-EBB019BE4B14
  #
  atom      -1.18858981      0.17204448      0.00004233 O
  atom       1.08598725      0.22808010     -0.00001524 O
  atom       0.04623286     -0.38312059      0.00005087 C
  atom      -0.04942104     -1.48488773      0.00016312 H
  atom      -1.05960926      1.14248374     -0.00004108 H
  #
  # What follows is the current estimated Hessian matrix constructed by the BFGS algorithm.
  # This is NOT the true Hessian matrix of the system.
  # If you do not want this information here, switch it off using the "hessian_to_restart_geometry" keyword.
  #
  trust_radius             0.0195026365
  hessian_file
  
  -----------------------------------------------------------------------
  Completed first pass over input file geometry.in .
  -----------------------------------------------------------------------
  

  Basic array size parameters:
  | Number of species                 :        3
  | Number of atoms                   :        5
  | Max. basis fn. angular momentum   :        4
  | Max. atomic/ionic basis occupied n:        2
  | Max. number of basis fn. types    :        2
  | Max. radial fns per species/type  :        8
  | Max. logarithmic grid size        :     1301
  | Max. radial integration grid size :       73
  | Max. angular integration grid size:      434
  | Max. angular grid division number :        8
  | Radial grid for Hartree potential :     1301
  | Number of spin channels           :        2

------------------------------------------------------------
          Reading file control.in.
------------------------------------------------------------
  XC: Using PBE gradient-corrected functionals.
  Scalar relativistic treatment of kinetic energy: ZORA.
  Threshold value for ZORA:   0.100000E-11
  Spin treatment: Spin density functional theory - collinear spins.
  Charged system requested: Charge =   0.100000E+01.
  Initial spin moment per atom:   1.0000
  Kohn-Sham eigenvalues and eigenfunctions calculated by LAPACK via ELSI.
  Occupation forced using basis function selection
    selected atom:     1
    selected spin channel:   1
    selected basis function - n l m:     1    0    0
    maximum number KS state for forcing occupation:        5
 
  Reading configuration options for species H                   .
  | Found nuclear charge :   1.0000
  | Found atomic mass :    1.00794000000000      amu
  | Found l_max for Hartree potential  :   6
  | Found cutoff potl. onset [A], width [A], scale factor :    4.00000    2.00000    1.00000
  | Threshold for basis-dependent cutoff potential is   0.100000E-03
  | Found data for basic radial integration grid :    24 points, outermost radius =    7.000 A
  | Found multiplier for basic radial grid :   2
  | Found angular grid specification: user-specified.
  | Specified grid contains     6 separate shells.
  | Check grid settings after all constraints further below.
  | Found free-atom valence shell :  1 s   1.000
  | No ionic wave fns used. Skipping ion_occ.
  | Found hydrogenic basis function :  2 s   2.100
  | Found hydrogenic basis function :  2 p   3.500
  | Found hydrogenic basis function :  1 s   0.850
  | Found hydrogenic basis function :  2 p   3.700
  | Found hydrogenic basis function :  2 s   1.200
  | Found hydrogenic basis function :  3 d   7.000
 | Encountered keyword species, ending the description of species H                   .
  Species H                   : Missing cutoff potential type.
  Defaulting to exp(1/x)/(1-x)^2 type cutoff potential.
  Species H : No 'logarithmic' tag. Using default grid for free atom:
  | Default logarithmic grid data [bohr] : 0.1000E-03 0.1000E+03 0.1012E+01
  Species H : On-site basis accuracy parameter (for Gram-Schmidt orthonormalisation) not specified.
  Using default value basis_acc =  0.1000000E-03.
  Species H                   : Using default innermost maximum threshold i_radial=  2 for radial functions.
  Species H                   : Default cutoff onset for free atom density etc. : 0.40000000E+01 AA.
  Species H                   : Basic radial grid will be enhanced according to radial_multiplier =   2, to contain    49 grid points.
 
  Reading configuration options for species C                   .
  | Found nuclear charge :   6.0000
  | Found atomic mass :    12.0107000000000      amu
  | Found l_max for Hartree potential  :   6
  | Found cutoff potl. onset [A], width [A], scale factor :    4.00000    2.00000    1.00000
  | Threshold for basis-dependent cutoff potential is   0.100000E-03
  | Found data for basic radial integration grid :    34 points, outermost radius =    7.000 A
  | Found multiplier for basic radial grid :   2
  | Found angular grid specification: user-specified.
  | Specified grid contains     6 separate shells.
  | Check grid settings after all constraints further below.
  | Found free-atom valence shell :  2 s   2.000
  | Found free-atom valence shell :  2 p   2.000
  | No ionic wave fns used. Skipping ion_occ.
  | No ionic wave fns used. Skipping ion_occ.
  | Found hydrogenic basis function :  2 p   1.700
  | Found hydrogenic basis function :  3 d   6.000
  | Found hydrogenic basis function :  2 s   4.900
  | Found hydrogenic basis function :  4 f   9.800
  | Found hydrogenic basis function :  3 p   5.200
  | Found hydrogenic basis function :  3 s   4.300
  | Found hydrogenic basis function :  5 g  14.400
  | Found hydrogenic basis function :  3 d   6.200
 | Encountered keyword species, ending the description of species C                   .
  Species C                   : Missing cutoff potential type.
  Defaulting to exp(1/x)/(1-x)^2 type cutoff potential.
  Species C : No 'logarithmic' tag. Using default grid for free atom:
  | Default logarithmic grid data [bohr] : 0.1000E-03 0.1000E+03 0.1012E+01
  Species C : On-site basis accuracy parameter (for Gram-Schmidt orthonormalisation) not specified.
  Using default value basis_acc =  0.1000000E-03.
  Species C                   : Using default innermost maximum threshold i_radial=  2 for radial functions.
  Species C                   : Default cutoff onset for free atom density etc. : 0.40000000E+01 AA.
  Species C                   : Basic radial grid will be enhanced according to radial_multiplier =   2, to contain    69 grid points.
 
  Reading configuration options for species O                   .
  | Found nuclear charge :   8.0000
  | Found atomic mass :    15.9994000000000      amu
  | Found l_max for Hartree potential  :   6
  | Found cutoff potl. onset [A], width [A], scale factor :    4.00000    2.00000    1.00000
  | Threshold for basis-dependent cutoff potential is   0.100000E-03
  | Found data for basic radial integration grid :    36 points, outermost radius =    7.000 A
  | Found multiplier for basic radial grid :   2
  | Found angular grid specification: user-specified.
  | Specified grid contains     6 separate shells.
  | Check grid settings after all constraints further below.
  | Found free-atom valence shell :  2 s   2.000
  | Found free-atom valence shell :  2 p   4.000
  | No ionic wave fns used. Skipping ion_occ.
  | No ionic wave fns used. Skipping ion_occ.
  | Found hydrogenic basis function :  2 p   1.800
  | Found hydrogenic basis function :  3 d   7.600
  | Found hydrogenic basis function :  3 s   6.400
  | Found hydrogenic basis function :  4 f  11.600
  | Found hydrogenic basis function :  3 p   6.200
  | Found hydrogenic basis function :  3 d   5.600
  | Found hydrogenic basis function :  5 g  17.600
  | Found hydrogenic basis function :  1 s   0.750
  Species O                   : Missing cutoff potential type.
  Defaulting to exp(1/x)/(1-x)^2 type cutoff potential.
  Species O : No 'logarithmic' tag. Using default grid for free atom:
  | Default logarithmic grid data [bohr] : 0.1000E-03 0.1000E+03 0.1012E+01
  Species O : On-site basis accuracy parameter (for Gram-Schmidt orthonormalisation) not specified.
  Using default value basis_acc =  0.1000000E-03.
  Species O                   : Using default innermost maximum threshold i_radial=  2 for radial functions.
  Species O                   : Default cutoff onset for free atom density etc. : 0.40000000E+01 AA.
  Species O                   : Basic radial grid will be enhanced according to radial_multiplier =   2, to contain    73 grid points.
 
  Finished reading input file 'control.in'.
 
------------------------------------------------------------


------------------------------------------------------------
          Reading geometry description geometry.in.
------------------------------------------------------------
  Found keyword 'hessian_file', indicating that this is the continuation of a structure optimization.
  However, the control.in file does not request the geometry to be optimized.
  Ignoring the request for a file 'hessian.aims' to be present.
  | The smallest distance between any two atoms is         0.97897311 AA.
  | The first atom of this pair is atom number                      1 .
  | The second atom of this pair is atom number                     5 .
  Input structure read successfully.
  The structure contains        5 atoms,  and a total of         23.000 electrons.

  Input geometry:
  | No unit cell requested.
  | Atomic structure:
  |       Atom                x [A]            y [A]            z [A]
  |    1: Species O            -1.18858981        0.17204448        0.00004233
  |    2: Species O             1.08598725        0.22808010       -0.00001524
  |    3: Species C             0.04623286       -0.38312059        0.00005087
  |    4: Species H            -0.04942104       -1.48488773        0.00016312
  |    5: Species H            -1.05960926        1.14248374       -0.00004108

  Initial moments and charges:
  |  Atom   Moment         Charge        Species
  |     1   0.100000E+01   0.000000E+00   O
  |     2   0.100000E+01   0.000000E+00   O
  |     3   0.100000E+01   0.000000E+00   C
  |     4   0.100000E+01   0.000000E+00   H
  |     5   0.100000E+01   0.000000E+00   H

  Slab Identifier: This is not a periodic structure.
 
  Finished reading input file 'geometry.in'.
 

 
  Consistency checks for stacksize environment parameter are next.
 
  | Maximum stacksize for task 0: unlimited
  | Maximum stacksize for task 1: unlimited
  | Maximum stacksize for task 2: unlimited
  | Maximum stacksize for task 3: unlimited
  | Maximum stacksize for task 4: unlimited
  | Maximum stacksize for task 5: unlimited
  | Maximum stacksize for task 6: unlimited
  | Maximum stacksize for task 7: unlimited
  | Maximum stacksize for task 8: unlimited
  | Maximum stacksize for task 9: unlimited
  | Maximum stacksize for task 10: unlimited
  | Maximum stacksize for task 11: unlimited
  | Maximum stacksize for task 12: unlimited
  | Maximum stacksize for task 13: unlimited
  | Maximum stacksize for task 14: unlimited
  | Maximum stacksize for task 15: unlimited
  | Maximum stacksize for task 16: unlimited
  | Maximum stacksize for task 17: unlimited
  | Maximum stacksize for task 18: unlimited
  | Maximum stacksize for task 19: unlimited
  | Maximum stacksize for task 20: unlimited
  | Maximum stacksize for task 21: unlimited
  | Maximum stacksize for task 22: unlimited
  | Maximum stacksize for task 23: unlimited
  | Maximum stacksize for task 24: unlimited
  | Maximum stacksize for task 25: unlimited
  | Maximum stacksize for task 26: unlimited
  | Maximum stacksize for task 27: unlimited
  | Maximum stacksize for task 28: unlimited
  | Maximum stacksize for task 29: unlimited
  | Maximum stacksize for task 30: unlimited
  | Maximum stacksize for task 31: unlimited
  | Current stacksize for task 0: unlimited
  | Current stacksize for task 1: unlimited
  | Current stacksize for task 2: unlimited
  | Current stacksize for task 3: unlimited
  | Current stacksize for task 4: unlimited
  | Current stacksize for task 5: unlimited
  | Current stacksize for task 6: unlimited
  | Current stacksize for task 7: unlimited
  | Current stacksize for task 8: unlimited
  | Current stacksize for task 9: unlimited
  | Current stacksize for task 10: unlimited
  | Current stacksize for task 11: unlimited
  | Current stacksize for task 12: unlimited
  | Current stacksize for task 13: unlimited
  | Current stacksize for task 14: unlimited
  | Current stacksize for task 15: unlimited
  | Current stacksize for task 16: unlimited
  | Current stacksize for task 17: unlimited
  | Current stacksize for task 18: unlimited
  | Current stacksize for task 19: unlimited
  | Current stacksize for task 20: unlimited
  | Current stacksize for task 21: unlimited
  | Current stacksize for task 22: unlimited
  | Current stacksize for task 23: unlimited
  | Current stacksize for task 24: unlimited
  | Current stacksize for task 25: unlimited
  | Current stacksize for task 26: unlimited
  | Current stacksize for task 27: unlimited
  | Current stacksize for task 28: unlimited
  | Current stacksize for task 29: unlimited
  | Current stacksize for task 30: unlimited
  | Current stacksize for task 31: unlimited
 
  Consistency checks for the contents of control.in are next.
 
  *** WARNING: The force_occupation functionality has been replaced with new deltascf_basis ***
  *** and deltascf_projector and will be removed in an upcoming release ***
  MPI_IN_PLACE appears to work with this MPI implementation.
  | Keeping use_mpi_in_place .true. (see manual).
  Target number of points in a grid batch is not set. Defaulting to  100
  Method for grid partitioning is not set. Defaulting to parallel hash+maxmin partitioning.
  Batch size limit is not set. Defaulting to    200
  By default, will store active basis functions for each batch.
  If in need of memory, prune_basis_once .false. can be used to disable this option.
  communication_type for Hartree potential was not specified.
  Defaulting to calc_hartree .
  Defaulting to Pulay charge density mixer.
  Pulay mixer: Number of relevant iterations not set.
  Defaulting to    8 iterations.
  Pulay mixer: Number of initial linear mixing iterations not set.
  Defaulting to    0 iterations.
  Work space size for distributed Hartree potential not set.
  Defaulting to   0.200000E+03 MB.
  Mixing parameter for charge density mixing has not been set.
  Using default: charge_mix_param =     0.0500.
  The mixing parameter will be adjusted in iteration number     2 of each s.c.f. cycle (i.e., each geometry step).
  Mixing parameter for spin density mixing has not been set.
  Using charge_mix_param as default:     0.0500.
  Algorithm-dependent basis array size parameters:
  | n_max_pulay                         :        8
  Maximum number of self-consistency iterations not provided.
  Presetting  1000 iterations.
  Presetting      1001 iterations before the initial mixing cycle
  is restarted anyway using the sc_init_iter criterion / keyword.
  Presetting a factor      1.000 between actual scf density residual
  and density convergence criterion sc_accuracy_rho below which sc_init_iter
  takes no effect.
 * No s.c.f. convergence criteria (sc_accuracy_*) were provided in control.in.
 * The run will proceed with a reasonable default guess, but please check whether.
 * the s.c.f. cycles seem to take too much or too little time.
  Calculation of forces was not defined in control.in. No forces will be calculated.
  Geometry relaxation not requested: no relaxation will be performed.
 * Notice: The s.c.f. convergence criterion sc_accuracy_rho was not provided.
 * We used to stop in this case, and ask the user to provide reasonable
 * scf convergence criteria. However, this led some users to employ criteria
 * that led to extremely long run times, e.g., for simple relaxation.
 * We now preset a default value for sc_accuracy_rho if it is not set.
 * You may still wish to check if this setting is too tight or too loose for your needs.
 * Based on n_atoms and forces and force-correction status, FHI-aims chose sc_accuracy_rho =  0.800000E-05 .
  No accuracy limit for integral partition fn. given. Defaulting to  0.1000E-14.
  No threshold value for u(r) in integrations given. Defaulting to  0.1000E-05.
  No occupation type (smearing scheme) given. Defaulting to Gaussian broadening, width =  0.1000E-01 eV.
  The width will be adjusted in iteration number     2 of each s.c.f. cycle (i.e., each geometry step).
  No accuracy for occupation numbers given. Defaulting to  0.1000E-07.
  No threshold value for occupation numbers given. Defaulting to  0.0000E+00.
  No accuracy for fermi level given. Defaulting to  0.1000E-19.
  Maximum # of iterations to find E_F not set. Defaulting to  200.
  Will not use alltoall communication since running on < 1024 CPUs.
  Threshold for basis singularities not set.
  Default threshold for basis singularities:  0.1000E-04
  partition_type (choice of integration weights) for integrals was not specified.
  | Using a version of the partition function of Stratmann and coworkers ('stratmann_sparse').
  | At each grid point, the set of atoms used to build the partition table is smoothly restricted to
  | only those atoms whose free-atom density would be non-zero at that grid point.
  Partitioning for Hartree potential was not defined. Using partition_type for integrals.
  | Adjusted default value of keyword multip_moments_threshold to:       0.10000000E-11
  | This value may affect high angular momentum components of the Hartree potential in periodic systems.
  No q(lm)/r^(l+1) cutoff set for long-range Hartree potential.
  | Using default value of  0.100000E-09 .
  | Verify using the multipole_threshold keyword.
  Defaulting to new monopole extrapolation.
  Density update method: automatic selection selected.
  Charge integration errors on the 3D integration grid will be compensated
  by explicit normalization and distribution of residual charges.
  Use the "compensate_multipole_errors" flag to change this behaviour.
  Set 'collect_eigenvectors' to be '.true.' for all serial calculations. This is mandatory.
  Set 'collect_eigenvectors' to be '.true.' for use_density_matrix .false.
  Set 'collect_eigenvectors' to be '.true.' for KS_method lapack_fast and serial.
  Found potential conflicts with setting 'use_local_index' for this calculation. Will not set it.
 
  Consistency checks for the contents of geometry.in are next.
 
 * Warning: Initial charge and total charge of the system are inconsistent.
 * Selected charge in control.in:     1.0000* Sum of initial charges in geometry.in:     0.0000
  Number of empty states per atom not set in control.in - providing a guess from actual geometry.
  | Total number of empty states used during s.c.f. cycle:       12
  If you use a very high smearing, use empty_states (per atom!) in control.in to increase this value.

  Structure-dependent array size parameters: 
  | Number of distinct atom types in initial rho :        3
  | Maximum number of distinct radial functions  :       29
  | Maximum number of basis functions            :      147
  | Number of Kohn-Sham states (occupied + empty):       24
------------------------------------------------------------
  After read_input_data [GB]:   1032.99

  Performing system and environment tests:
  *** Environment variable OMP_NUM_THREADS is not set
  *** For performance reasons you might want to set it to 1
  | Checking for ScaLAPACK...
  | Testing pdtran()...
  | All pdtran() tests passed.
  After prepare_system [GB]:   1032.81

------------------------------------------------------------
          Preparing all fixed parts of the calculation.
------------------------------------------------------------
  Determining machine precision:
    2.225073858507201E-308
  Setting up grids for atomic and cluster calculations.

  Creating wave function, potential, and density for free atoms.
  Runtime choices for atomic solver:
  | atomic solver xc        : PBE
  | compute density gradient: 1
  | compute kinetic density : F

  Species: H

  List of occupied orbitals and eigenvalues:
    n    l              occ      energy [Ha]    energy [eV]
    1    0           1.0000        -0.238386        -6.4868


  Species: C

  List of occupied orbitals and eigenvalues:
    n    l              occ      energy [Ha]    energy [eV]
    1    0           2.0000       -10.049212      -273.4530
    2    0           2.0000        -0.504761       -13.7352
    2    1           2.0000        -0.193631        -5.2690


  Species: O

  List of occupied orbitals and eigenvalues:
    n    l              occ      energy [Ha]    energy [eV]
    1    0           2.0000       -18.927378      -515.0401
    2    0           2.0000        -0.880539       -23.9607
    2    1           4.0000        -0.331811        -9.0290

  Spin-polarized or charged system:
  Charge density initialized according to selected moments and charges.

  Creating spin-polarized density from free atoms.

  Species: O
  Charge:   0.000000
  Moment:   1.000000

  List of occupied orbitals and eigenvalues:
    n    l      energy [Ha]    energy [eV]    occupation
  Spin-up
    1    0       -18.934229      -515.2266     1.00000000
    2    0        -0.906872       -24.6772     1.00000000
    2    1        -0.356742        -9.7074     2.50000000
  Spin-down
    1    0       -18.911454      -514.6069     1.00000000
    2    0        -0.847558       -23.0632     1.00000000
    2    1        -0.301004        -8.1907     1.50000000


  Species: C
  Charge:   0.000000
  Moment:   1.000000

  List of occupied orbitals and eigenvalues:
    n    l      energy [Ha]    energy [eV]    occupation
  Spin-up
    1    0       -10.051031      -273.5025     1.00000000
    2    0        -0.525597       -14.3022     1.00000000
    2    1        -0.212561        -5.7841     1.50000000
  Spin-down
    1    0       -10.035888      -273.0904     1.00000000
    2    0        -0.475307       -12.9338     1.00000000
    2    1        -0.167132        -4.5479     0.50000000


  Species: H
  Charge:   0.000000
  Moment:   1.000000

  List of occupied orbitals and eigenvalues:
    n    l      energy [Ha]    energy [eV]    occupation
  Spin-up
    1    0        -0.278991        -7.5917     1.00000000
  Spin-down
    1    0         0.090850         2.4721     0.00000000


  Adding cutoff potential to free-atom effective potential.
  Creating fixed part of basis set: Ionic, confined, hydrogenic.
 
  H                    hydrogenic:
 
  List of hydrogenic basis orbitals: 
    n    l      effective z      eigenvalue [eV]  inner max. [A]     outer max. [A]     outer radius [A]   
    2    0         2.100000       -14.9965           0.193243           1.317208           5.373006
    2    1         3.500000       -41.6672           0.602369           0.602369           4.056063
    1    0         0.850000        -9.8292           0.624871           0.624871           5.373006
    2    1         3.700000       -46.5653           0.573622           0.573622           3.910002
    2    0         1.200000        -4.5995           0.334980           2.228188           5.505995
    3    2         7.000000       -74.0753           0.680699           0.680699           3.769201
 
 
  C                    hydrogenic:
 
  List of hydrogenic basis orbitals: 
    n    l      effective z      eigenvalue [eV]  inner max. [A]     outer max. [A]     outer radius [A]   
    2    1         1.700000        -9.8152           1.245706           1.245706           5.401630
    3    2         6.000000       -54.4226           0.792453           0.792453           4.178599
    2    0         4.900000       -81.6681           0.082559           0.562749           3.353238
    4    3         9.800000       -81.6681           0.863254           0.863254           4.028125
    3    1         5.200000       -40.8774           0.305389           1.215618           4.898362
    3    0         4.300000       -27.9508           0.091041           1.610311           5.401630
    5    4        14.400000      -112.8510           0.917666           0.917666           3.883070
    3    2         6.200000       -58.1113           0.763917           0.763917           4.077671
 
 
  O                    hydrogenic:
 
  List of hydrogenic basis orbitals: 
    n    l      effective z      eigenvalue [eV]  inner max. [A]     outer max. [A]     outer radius [A]   
    2    1         1.800000       -11.0118           1.178562           1.178562           5.432602
    3    2         7.600000       -87.3182           0.624125           0.624125           3.541477
    3    0         6.400000       -61.9209           0.061167           1.081902           4.306578
    4    3        11.600000      -114.4238           0.731631           0.731631           3.585037
    3    1         6.200000       -58.1113           0.255680           1.030270           4.306578
    3    2         5.600000       -47.4081           0.847233           0.847233           4.413171
    5    4        17.600000      -168.5799           0.749740           0.749740           3.372465
    1    0         0.750000        -7.6499           0.705284           0.705284           5.366593
 
  Creating atomic-like basis functions for current effective potential.

  Species H                   :

  List of atomic basis orbitals and eigenvalues:
    n    l      energy [Ha]    energy [eV]    outer radius [A]
    1    0        -0.238386        -6.4868       5.373006


  Species C                   :

  List of atomic basis orbitals and eigenvalues:
    n    l      energy [Ha]    energy [eV]    outer radius [A]
    1    0       -10.049212      -273.4530       1.934409
    2    0        -0.504761       -13.7352       5.271162
    2    1        -0.193631        -5.2690       5.401630


  Species O                   :

  List of atomic basis orbitals and eigenvalues:
    n    l      energy [Ha]    energy [eV]    outer radius [A]
    1    0       -18.927378      -515.0401       1.415765
    2    0        -0.880539       -23.9607       5.048385
    2    1        -0.331811        -9.0290       5.301386

  Assembling full basis from fixed parts.
  | Species H :   atomic orbital   1 s accepted.
  | Species H :    hydro orbital   2 s accepted.
  | Species H :    hydro orbital   1 s accepted.
  | Species H :    hydro orbital   2 s accepted.
  | Species H :    hydro orbital   2 p accepted.
  | Species H :    hydro orbital   2 p accepted.
  | Species H :    hydro orbital   3 d accepted.
  | Species C :   atomic orbital   1 s accepted.
  | Species C :    hydro orbital   2 s accepted.
  | Species C :   atomic orbital   2 s accepted.
  | Species C :    hydro orbital   3 s accepted.
  | Species C :    hydro orbital   3 p accepted.
  | Species C :   atomic orbital   2 p accepted.
  | Species C :    hydro orbital   2 p accepted.
  | Species C :    hydro orbital   3 d accepted.
  | Species C :    hydro orbital   3 d accepted.
  | Species C :    hydro orbital   4 f accepted.
  | Species C :    hydro orbital   5 g accepted.
  | Species O :   atomic orbital   1 s accepted.
  | Species O :    hydro orbital   3 s accepted.
  | Species O :   atomic orbital   2 s accepted.
  | Species O :    hydro orbital   1 s accepted.
  | Species O :    hydro orbital   3 p accepted.
  | Species O :   atomic orbital   2 p accepted.
  | Species O :    hydro orbital   2 p accepted.
  | Species O :    hydro orbital   3 d accepted.
  | Species O :    hydro orbital   3 d accepted.
  | Species O :    hydro orbital   4 f accepted.
  | Species O :    hydro orbital   5 g accepted.
 
  Basis size parameters after reduction:
  | Total number of radial functions:       29
  | Total number of basis functions :      147
 
  Per-task memory consumption for arrays in subroutine allocate_ext:
  |           7.249324MB.
  Testing on-site integration grid accuracy.
  |  Species  Function  <phi|h_atom|phi> (log., in eV)  <phi|h_atom|phi> (rad., in eV)
           1        1                 -6.4870767962                 -6.4871688290
           1        2                 13.5032046589                 13.5028982997
           1        3                 32.8195184817                 32.8119941656
           1        4                 33.8513856511                 33.7670005767 ***
           1        5                 28.8544614965                 28.8544615203
           1        6                 59.6326952547                 59.6327656460
           1        7                 60.2719308513                 60.2719305949
           2        8               -273.4529725981               -273.4529710404
           2        9                -10.7721037329                -10.7721022112
           2       10                 17.6044132585                 17.6044162047
           2       11                 53.7706460564                 53.7706913676
           2       12                 15.0973290351                 15.0973256018
           2       13                  3.8545134677                  3.8545724672
           2       14                 12.1156992586                 12.1182024425
           2       15                 29.4352039288                 29.4352041803
           2       16                 54.8741144697                 54.8740268718
           2       17                 59.3556032036                 59.3556031368
           2       18                 93.4551837140                 93.4551837995
           3       19               -515.0401491148               -515.0401445421
           3       20                 15.1629302771                 15.1629233104
           3       21                -21.6127103295                -21.6127145442
           3       22                 14.4001435709                 14.4001765994
           3       23                 20.8862585187                 20.8862589493
           3       24                 -2.4803658578                 -2.4803665012
           3       25                 13.8586387760                 13.8586021622
           3       26                 45.8331828879                 45.8331828941
           3       27                 52.1851961049                 52.1851977023
           3       28                 85.4133898762                 85.4133899074
           3       29                142.1023296234                142.1023296272
 * Note: Onsite integrals marked "***" above are less accurate than
 * onsite_accuracy_threshold =    0.03000 eV. Usually, this is harmless.
 * When in doubt, tighten the "radial" and/or "radial_multiplier" flags to check.

  Preparing densities etc. for the partition functions (integrals / Hartree potential).

  Preparations completed.
  max(cpu_time)          :      0.288 s.
  Wall clock time (cpu1) :      0.288 s.
------------------------------------------------------------
  After prepare_scf [GB]:   1031.10

  Initializing index lists of integration centers etc. from given atomic structure:
  | Number of centers in hartree potential         :         5
  | Number of centers in hartree multipole         :         5
  | Number of centers in electron density summation:         5
  | Number of centers in basis integrals           :         5
  | Number of centers in integrals                 :         5
  | Number of centers in hamiltonian               :         5
  After initialize_bc_dependent_lists [GB]:   1031.10

------------------------------------------------------------
          Begin self-consistency loop: Initialization.

          Date     :  20250311, Time     :  155859.379
------------------------------------------------------------
  Available memory per node after initialize_hartree_non_periodic_ewald [GB]:   1031.10
  Available memory per node after initialize_recip_hartree_potential [GB]:   1031.10
  Available memory per node after initialize_scalapack [GB]:   1031.10
  Available memory per node after aims_elsi_init_scf [GB]:   1031.10
  Available memory per node after initialize_fixed_grids [GB]:   1031.10
  Partitioning the integration grid into batches with parallel hashing+maxmin method.
  | Number of batches:     1152
  | Maximal batch size:     198
  | Minimal batch size:      25
  | Average batch size:      75.741
  | Standard deviation of batch sizes:      20.166

  Integration load balanced across    32 MPI tasks.
  Work distribution over tasks is as follows:
  Task     0 has       2683 integration points.
  Task     1 has       2820 integration points.
  Task     2 has       2805 integration points.
  Task     3 has       2709 integration points.
  Task     4 has       2711 integration points.
  Task     5 has       2735 integration points.
  Task     6 has       2699 integration points.
  Task     7 has       2684 integration points.
  Task     8 has       2814 integration points.
  Task     9 has       2798 integration points.
  Task    10 has       2705 integration points.
  Task    11 has       2710 integration points.
  Task    12 has       2696 integration points.
  Task    13 has       2795 integration points.
  Task    14 has       2695 integration points.
  Task    15 has       2706 integration points.
  Task    16 has       2691 integration points.
  Task    17 has       2687 integration points.
  Task    18 has       2788 integration points.
  Task    19 has       2704 integration points.
  Task    20 has       2731 integration points.
  Task    21 has       2742 integration points.
  Task    22 has       2698 integration points.
  Task    23 has       2701 integration points.
  Task    24 has       2689 integration points.
  Task    25 has       2801 integration points.
  Task    26 has       2680 integration points.
  Task    27 has       2706 integration points.
  Task    28 has       2792 integration points.
  Task    29 has       2694 integration points.
  Task    30 has       2699 integration points.
  Task    31 has       2686 integration points.
  Available memory per node after partition_grid [GB]:   1031.10
  Initializing partition tables, free-atom densities, potentials, etc. across the integration grid (initialize_grid_storage).
  | initialize_grid_storage: Actual outermost partition radius vs. multipole_radius_free
  | (-- VB: in principle, multipole_radius_free should be larger, hence this output)
  | Species        1: Confinement radius =              6.000000000000000 AA, multipole_radius_free =              6.071692442739658 AA.
  | Species        1: outer_partition_radius set to              6.071692442739658 AA .
  | Species        2: Confinement radius =              6.000000000000000 AA, multipole_radius_free =              6.029870734432609 AA.
  | Species        2: outer_partition_radius set to              6.029870734432609 AA .
  | Species        3: Confinement radius =              6.000000000000000 AA, multipole_radius_free =              6.064445521808699 AA.
  | Species        3: outer_partition_radius set to              6.064445521808699 AA .
  | The sparse table of interatomic distances needs          0.26 kbyte instead of         0.20 kbyte of memory.
  | Using the partition_type stratmann_smoother will reduce your memory usage.
  | Net number of integration points:    87254
  | of which are non-zero points    :    76517
  Available memory per node after initialize_grid_storage_p1 [GB]:   1031.10
  Renormalizing the initial density to the exact electron count on the 3D integration grid.
  | Initial density: Formal number of electrons (from input files) :      24.0000000000
  | Integrated number of electrons on 3D grid     :      23.9999994110
  | Charge integration error                      :      -0.0000005890
  | Normalization factor for density and gradient :       1.0000000245
  Renormalizing the free-atom superposition density to the exact electron count on the 3D integration grid.
  | Formal number of electrons (from input files) :      23.0000000000
  | Integrated number of electrons on 3D grid     :      23.9999992269
  | Charge integration error                      :      -0.0000007731
  | Normalization factor for density and gradient :       1.0000000322
  Obtaining max. number of non-zero basis functions in each batch (get_n_compute_maxes).
  | Maximal number of non-zero basis functions:      147 in task     0
  | Maximal number of non-zero basis functions:      147 in task     1
  | Maximal number of non-zero basis functions:      147 in task     2
  | Maximal number of non-zero basis functions:      147 in task     3
  | Maximal number of non-zero basis functions:      147 in task     4
  | Maximal number of non-zero basis functions:      147 in task     5
  | Maximal number of non-zero basis functions:      147 in task     6
  | Maximal number of non-zero basis functions:      147 in task     7
  | Maximal number of non-zero basis functions:      147 in task     8
  | Maximal number of non-zero basis functions:      147 in task     9
  | Maximal number of non-zero basis functions:      147 in task    10
  | Maximal number of non-zero basis functions:      147 in task    11
  | Maximal number of non-zero basis functions:      147 in task    12
  | Maximal number of non-zero basis functions:      147 in task    13
  | Maximal number of non-zero basis functions:      147 in task    14
  | Maximal number of non-zero basis functions:      147 in task    15
  | Maximal number of non-zero basis functions:      147 in task    16
  | Maximal number of non-zero basis functions:      147 in task    17
  | Maximal number of non-zero basis functions:      147 in task    18
  | Maximal number of non-zero basis functions:      147 in task    19
  | Maximal number of non-zero basis functions:      147 in task    20
  | Maximal number of non-zero basis functions:      147 in task    21
  | Maximal number of non-zero basis functions:      147 in task    22
  | Maximal number of non-zero basis functions:      147 in task    23
  | Maximal number of non-zero basis functions:      147 in task    24
  | Maximal number of non-zero basis functions:      147 in task    25
  | Maximal number of non-zero basis functions:      147 in task    26
  | Maximal number of non-zero basis functions:      147 in task    27
  | Maximal number of non-zero basis functions:      147 in task    28
  | Maximal number of non-zero basis functions:      147 in task    29
  | Maximal number of non-zero basis functions:      147 in task    30
  | Maximal number of non-zero basis functions:      147 in task    31
  Selecting the method for density update.
  Loop over occupied states selected for charge density update.
  Available memory per node after get_n_compute_maxes_p1 [GB]:   1031.10
  Initialize hartree_potential_storage
  Max. number of atoms included in rho_multipole:            5

  Evaluating partitioned Hartree potential by multipole expansion.
  | Original multipole sum: apparent total charge =   0.128631E-13
  | Sum of charges compensated after spline to logarithmic grids =  -0.291218E-06
  | Analytical far-field extrapolation by fixed multipoles:
  | Hartree multipole sum: apparent total charge =   0.128646E-13
  Summing up the Hartree potential.
  Time summed over all CPUs for potential: real work        0.005 s, elapsed        0.005 s
  | RMS charge density error from multipole expansion :   0.199874E-03

  Allocating        0.054 MB for KS_eigenvector
  Available memory per node after allocate_matrices [GB]:   1031.10
  Available memory per node after init_comm_sparse_local_matrix_scalapack [GB]:   1031.10
  Integrating Hamiltonian matrix: batch-based integration.
  Time summed over all CPUs for integration: real work        1.394 s, elapsed        1.565 s
  Available memory per node after integrate hamiltonian matrix [GB]:   1031.10
  Integrating overlap matrix.
  Time summed over all CPUs for integration: real work        0.228 s, elapsed        0.250 s
  Available memory per node after integrate ovlp matrix [GB]:   1031.10
  Available memory per node after ASI_callbacks invoke [GB]:   1031.10
  Available memory per node after save_overlap_scalapack [GB]:   1031.10

  Updating Kohn-Sham eigenvalues and eigenvectors using ELSI and the (modified) LAPACK eigensolver.
  Overlap matrix is not singular
  | Lowest and highest eigenvalues :  0.1783E-03,  0.4459E+01
  Finished singularity check of overlap matrix
  | Time :     0.002 s
  Starting LAPACK eigensolver
  Finished Cholesky decomposition
  | Time :     0.000 s
  Finished transformation to standard eigenproblem
  | Time :     0.001 s
  Finished solving standard eigenproblem
  | Time :     0.001 s
  Finished back-transformation of eigenvectors
  | Time :     0.000 s
  Determining occupation numbers for Kohn-Sham eigenstates.
  | Chemical potential (Fermi level) in eV                 : -.87100840E+01
  | Error in electron count due to remaining E_F inaccuracy: 0.00000000E+00
  | Note that, for insulating systems, the printed 'chemical potential' value is not uniquely defined.
  | It can be anywhere in the energy gap, as long as it correctly separates occupied and unoccupied states.
  | In systems with a gap, the physically relevant chemical potential is the VBM or HOMO.
  | Maximum occupation number of highest empty state:  0.00E+00

  Available memory per node after advance_KS_solution [GB]:   1031.09
  Writing Kohn-Sham eigenvalues.

  Spin-up eigenvalues:

  State    Occupation    Eigenvalue [Ha]    Eigenvalue [eV]
      1       0.00000         -19.024088         -517.67178
      2       1.00000         -19.013654         -517.38784
      3       1.00000         -10.139768         -275.91714
      4       1.00000          -1.184223          -32.22436
      5       1.00000          -1.117192          -30.40035
      6       1.00000          -0.741586          -20.17958
      7       1.00000          -0.618828          -16.83916
      8       1.00000          -0.606065          -16.49186
      9       1.00000          -0.539191          -14.67212
     10       1.00000          -0.521441          -14.18912
     11       1.00000          -0.451729          -12.29217
     12       1.00000          -0.425960          -11.59097
     13       0.00000          -0.175166           -4.76651
     14       0.00000          -0.061606           -1.67638
     15       0.00000          -0.024474           -0.66598
     16       0.00000           0.031682            0.86211
     17       0.00000           0.052280            1.42262
     18       0.00000           0.086615            2.35693
     19       0.00000           0.095089            2.58750
     20       0.00000           0.127226            3.46199
     21       0.00000           0.132531            3.60636
     22       0.00000           0.158706            4.31860
     23       0.00000           0.176819            4.81148
     24       0.00000           0.212929            5.79410

  Spin-down eigenvalues:

  State    Occupation    Eigenvalue [Ha]    Eigenvalue [eV]
      1       1.00000         -19.000272         -517.02369
      2       1.00000         -18.990495         -516.75766
      3       1.00000         -10.123172         -275.46553
      4       1.00000          -1.112844          -30.28203
      5       1.00000          -1.040286          -28.30762
      6       1.00000          -0.641625          -17.45952
      7       1.00000          -0.545251          -14.83702
      8       1.00000          -0.523306          -14.23989
      9       1.00000          -0.477536          -12.99442
     10       1.00000          -0.427249          -11.62603
     11       1.00000          -0.386213          -10.50940
     12       1.00000          -0.342001           -9.30631
     13       0.00000          -0.111139           -3.02426
     14       0.00000          -0.001456           -0.03963
     15       0.00000           0.026988            0.73437
     16       0.00000           0.078441            2.13448
     17       0.00000           0.108448            2.95103
     18       0.00000           0.112934            3.07308
     19       0.00000           0.155552            4.23279
     20       0.00000           0.162753            4.42875
     21       0.00000           0.172660            4.69831
     22       0.00000           0.195706            5.32542
     23       0.00000           0.218319            5.94076
     24       0.00000           0.250081            6.80504

  Current spin moment of the entire structure :
  | N = N_up - N_down :    1.00
  | S                 :    0.50
  | J                 :    2.00

  Highest occupied state (VBM) at     -9.30631319 eV
  | Occupation number:      1.00000000
  | Spin channel:        2

  Lowest unoccupied state (CBM) at  -517.67177907 eV
  | Occupation number:      0.00000000
  | Spin channel:        1

  Overall HOMO-LUMO gap:   -508.36546589 eV.
  Calculating total energy contributions from superposition of free atom densities.

  Total energy components:
  | Sum of eigenvalues            :         -88.96988679 Ha       -2420.99379836 eV
  | XC energy correction          :         -22.93146121 Ha        -623.99680805 eV
  | XC potential correction       :          29.48615092 Ha         802.35899002 eV
  | Free-atom electrostatic energy:         -88.15759140 Ha       -2398.89011620 eV
  | Hartree energy correction     :          -0.22402827 Ha          -6.09611931 eV
  | Entropy correction            :           0.00000000 Ha           0.00000000 eV
  | ---------------------------
  | Total energy                  :        -170.79681675 Ha       -4647.61785189 eV
  | Total energy, T -> 0          :        -170.79681675 Ha       -4647.61785189 eV  <-- do not rely on this value for anything but (periodic) metals
  | Electronic free energy        :        -170.79681675 Ha       -4647.61785189 eV

  Derived energy quantities:
  | Kinetic energy                :         208.13671095 Ha        5663.68807029 eV
  | Electrostatic energy          :        -356.00206649 Ha       -9687.30911413 eV
  | Energy correction for multipole
  | error in Hartree potential    :          -0.00037382 Ha          -0.01017205 eV
  | Sum of eigenvalues per atom                           :        -484.19875967 eV
  | Total energy (T->0) per atom                          :        -929.52357038 eV  <-- do not rely on this value for anything but (periodic) metals
  | Electronic free energy per atom                       :        -929.52357038 eV

  End scf initialization - timings             :  max(cpu_time)    wall_clock(cpu1)
  | Time for scf. initialization                :        0.111 s           0.113 s
  | Boundary condition initialization           :        0.016 s           0.017 s
  | Integration                                 :        0.058 s           0.058 s
  | Solution of K.-S. eqns.                     :        0.007 s           0.008 s
  | Grid partitioning                           :        0.023 s           0.024 s
  | Preloading free-atom quantities on grid     :        0.021 s           0.020 s
  | Free-atom superposition energy              :        0.002 s           0.002 s
  | Total energy evaluation                     :        0.000 s           0.001 s

  Partial memory accounting:
  | Current value for overall tracked memory usage:
  |   Minimum:        0.304 MB (on task  0)
  |   Maximum:        0.304 MB (on task  0)
  |   Average:        0.304 MB
  | Peak value for overall tracked memory usage:
  |   Minimum:        4.247 MB (on task  0 after allocating zora_vector2)
  |   Maximum:        4.247 MB (on task  0 after allocating zora_vector2)
  |   Average:        4.247 MB
  | Largest tracked array allocation so far:
  |   Minimum:        1.332 MB (zora_vector1 on task  0)
  |   Maximum:        1.332 MB (zora_vector1 on task  0)
  |   Average:        1.332 MB
  Note:  These values currently only include a subset of arrays which are explicitly tracked.
  The "true" memory usage will be greater.
------------------------------------------------------------
  Available memory after initialize_scf [GB]:   1031.09
  Available memory after allocating mixing [GB]:   1031.09
  Evaluating new KS density.
  Integration grid: deviation in total charge (<rho> - N_e) =   7.105427E-15
  | <rho_up-rho_dn> = N_up-N_dn =     -1.0000; <|rho_up-rho_dn|> =      1.3708

  Time for density update prior                :  max(cpu_time)    wall_clock(cpu1)
  | self-consistency iterative process          :        0.013 s           0.013 s
  Available memory before start of SCF loop [GB]:   1031.09

------------------------------------------------------------
          Begin self-consistency iteration #    1

  Date     :  20250311, Time     :  155859.505
------------------------------------------------------------
  Pulay mixing of updated and previous charge densities.
  Available memory per node after mixing [GB]:   1031.09
  Renormalizing the density to the exact electron count on the 3D integration grid.
  | Formal number of electrons (from input files) :      23.0000000000
  | Integrated number of electrons on 3D grid     :      23.9499999993
  | Charge integration error                      :       0.9499999993
  | Normalization factor for density and gradient :       0.9603340293
  * The proposed renormalization factor deviates too far from 1.
  * Since the initial charge in geometry.in was not equal to the formal charge,
  * it is not yet safe to renormalize the charge. If this message persists
  * even in the final s.c.f. cycle, your integration accuracy may not be good enough.

  Evaluating partitioned Hartree potential by multipole expansion.
  | Original multipole sum: apparent total charge =   0.500000E-01
  | Sum of charges compensated after spline to logarithmic grids =   0.668873E-06
  | Analytical far-field extrapolation by fixed multipoles:
  | Hartree multipole sum: apparent total charge =   0.500000E-01
  Summing up the Hartree potential.
  Time summed over all CPUs for potential: real work        0.004 s, elapsed        0.005 s
  | RMS charge density error from multipole expansion :   0.426044E-03

  Integrating Hamiltonian matrix: batch-based integration.
  Time summed over all CPUs for integration: real work        1.304 s, elapsed        1.466 s

  Updating Kohn-Sham eigenvalues and eigenvectors using ELSI and the (modified) LAPACK eigensolver.
  Starting LAPACK eigensolver
  Finished Cholesky decomposition
  | Time :     0.000 s
  Finished transformation to standard eigenproblem
  | Time :     0.001 s
  Finished solving standard eigenproblem
  | Time :     0.001 s
  Finished back-transformation of eigenvectors
  | Time :     0.000 s
  Determining occupation numbers for Kohn-Sham eigenstates.
  | Chemical potential (Fermi level) in eV                 : -.93206067E+01
  | Error in electron count due to remaining E_F inaccuracy: 0.00000000E+00
  | Note that, for insulating systems, the printed 'chemical potential' value is not uniquely defined.
  | It can be anywhere in the energy gap, as long as it correctly separates occupied and unoccupied states.
  | In systems with a gap, the physically relevant chemical potential is the VBM or HOMO.
  | Maximum occupation number of highest empty state:  0.00E+00

  Writing Kohn-Sham eigenvalues.

  Spin-up eigenvalues:

  State    Occupation    Eigenvalue [Ha]    Eigenvalue [eV]
      1       0.00000         -19.194755         -522.31586
      2       1.00000         -18.990220         -516.75017
      3       1.00000         -10.152359         -276.25975
      4       1.00000          -1.203315          -32.74387
      5       1.00000          -1.131881          -30.80005
      6       1.00000          -0.766909          -20.86866
      7       1.00000          -0.629278          -17.12353
      8       1.00000          -0.618114          -16.81973
      9       1.00000          -0.557032          -15.15760
     10       1.00000          -0.542797          -14.77025
     11       1.00000          -0.469176          -12.76692
     12       1.00000          -0.425211          -11.57057
     13       0.00000          -0.185549           -5.04905
     14       0.00000          -0.079643           -2.16718
     15       0.00000          -0.033497           -0.91149
     16       0.00000           0.017640            0.48001
     17       0.00000           0.040090            1.09089
     18       0.00000           0.075901            2.06536
     19       0.00000           0.080401            2.18782
     20       0.00000           0.118925            3.23610
     21       0.00000           0.122091            3.32226
     22       0.00000           0.148828            4.04983
     23       0.00000           0.165215            4.49574
     24       0.00000           0.201738            5.48958

  Spin-down eigenvalues:

  State    Occupation    Eigenvalue [Ha]    Eigenvalue [eV]
      1       1.00000         -19.211857         -522.78122
      2       1.00000         -18.968182         -516.15049
      3       1.00000         -10.136720         -275.83417
      4       1.00000          -1.132210          -30.80900
      5       1.00000          -1.063702          -28.94479
      6       1.00000          -0.674060          -18.34212
      7       1.00000          -0.552300          -15.02885
      8       1.00000          -0.545567          -14.84564
      9       1.00000          -0.497305          -13.53236
     10       1.00000          -0.455321          -12.38990
     11       1.00000          -0.408640          -11.11965
     12       1.00000          -0.349293           -9.50475
     13       0.00000          -0.124871           -3.39792
     14       0.00000          -0.015961           -0.43433
     15       0.00000           0.016203            0.44091
     16       0.00000           0.069499            1.89116
     17       0.00000           0.091221            2.48225
     18       0.00000           0.097126            2.64294
     19       0.00000           0.139478            3.79538
     20       0.00000           0.151515            4.12293
     21       0.00000           0.160760            4.37450
     22       0.00000           0.184070            5.00880
     23       0.00000           0.200868            5.46590
     24       0.00000           0.239129            6.50704

  Current spin moment of the entire structure :
  | N = N_up - N_down :    1.00
  | S                 :    0.50
  | J                 :    2.00

  Highest occupied state (VBM) at     -9.50475369 eV
  | Occupation number:      1.00000000
  | Spin channel:        2

  Lowest unoccupied state (CBM) at  -522.31585658 eV
  | Occupation number:      0.00000000
  | Spin channel:        1

  Overall HOMO-LUMO gap:   -512.81110289 eV.

  Total energy components:
  | Sum of eigenvalues            :         -89.48144672 Ha       -2434.91405224 eV
  | XC energy correction          :         -22.80331101 Ha        -620.50966387 eV
  | XC potential correction       :          29.32077285 Ha         797.85882387 eV
  | Free-atom electrostatic energy:         -88.15759140 Ha       -2398.89011620 eV
  | Hartree energy correction     :           0.46928718 Ha          12.76995398 eV
  | Entropy correction            :          -0.00000000 Ha          -0.00000000 eV
  | ---------------------------
  | Total energy                  :        -170.65228910 Ha       -4643.68505447 eV
  | Total energy, T -> 0          :        -170.65228910 Ha       -4643.68505447 eV  <-- do not rely on this value for anything but (periodic) metals
  | Electronic free energy        :        -170.65228910 Ha       -4643.68505447 eV

  Derived energy quantities:
  | Kinetic energy                :         206.05027767 Ha        5606.91333198 eV
  | Electrostatic energy          :        -353.89925575 Ha       -9630.08872258 eV
  | Energy correction for multipole
  | error in Hartree potential    :          -0.00084382 Ha          -0.02296164 eV
  | Sum of eigenvalues per atom                           :        -486.98281045 eV
  | Total energy (T->0) per atom                          :        -928.73701089 eV  <-- do not rely on this value for anything but (periodic) metals
  | Electronic free energy per atom                       :        -928.73701089 eV
  Evaluating new KS density.
  Integration grid: deviation in total charge (<rho> - N_e) =   3.552714E-15
  | <rho_up-rho_dn> = N_up-N_dn =     -1.0000; <|rho_up-rho_dn|> =      1.3428

  Self-consistency convergence accuracy:
  | Change of charge/spin density :  0.4219E+01  0.4281E+01
  | Change of unmixed KS charge/spin density :  0.1183E+02  0.4210E+01
  | Change of sum of eigenvalues  : -0.1392E+02 eV
  | Change of total energy        :  0.3933E+01 eV


------------------------------------------------------------
  End self-consistency iteration #     1       :  max(cpu_time)    wall_clock(cpu1)
  | Time for this iteration                     :        0.070 s           0.070 s
  | Charge density update                       :        0.012 s           0.012 s
  | Density mixing                              :        0.000 s           0.000 s
  | Hartree multipole update                    :        0.001 s           0.001 s
  | Hartree multipole summation                 :        0.005 s           0.005 s
  | Integration                                 :        0.046 s           0.046 s
  | Solution of K.-S. eqns.                     :        0.005 s           0.005 s
  | Total energy evaluation                     :        0.000 s           0.000 s

  Partial memory accounting:
  | Current value for overall tracked memory usage:
  |   Minimum:        3.289 MB (on task 26)
  |   Maximum:        3.445 MB (on task  1)
  |   Average:        3.341 MB
  | Peak value for overall tracked memory usage:
  |   Minimum:        7.232 MB (on task 26 after allocating zora_vector2)
  |   Maximum:        7.388 MB (on task  1 after allocating zora_vector2)
  |   Average:        7.284 MB
  | Largest tracked array allocation so far:
  |   Minimum:        1.332 MB (zora_vector1 on task  0)
  |   Maximum:        1.332 MB (zora_vector1 on task  0)
  |   Average:        1.332 MB
  Note:  These values currently only include a subset of arrays which are explicitly tracked.
  The "true" memory usage will be greater.
------------------------------------------------------------

------------------------------------------------------------
          Begin self-consistency iteration #    2

  Date     :  20250311, Time     :  155859.575
------------------------------------------------------------
  Pulay mixing of updated and previous charge densities.
  Available memory per node after mixing [GB]:   1031.09
  Renormalizing the density to the exact electron count on the 3D integration grid.
  | Formal number of electrons (from input files) :      23.0000000000
  | Integrated number of electrons on 3D grid     :      23.0935657572
  | Charge integration error                      :       0.0935657572
  | Normalization factor for density and gradient :       0.9959484058
  * The proposed renormalization factor deviates too far from 1.
  * Since the initial charge in geometry.in was not equal to the formal charge,
  * it is not yet safe to renormalize the charge. If this message persists
  * even in the final s.c.f. cycle, your integration accuracy may not be good enough.

  Evaluating partitioned Hartree potential by multipole expansion.
  | Original multipole sum: apparent total charge =   0.906434E+00
  | Sum of charges compensated after spline to logarithmic grids =   0.172166E-04
  | Analytical far-field extrapolation by fixed multipoles:
  | Hartree multipole sum: apparent total charge =   0.906434E+00
  Summing up the Hartree potential.
  Time summed over all CPUs for potential: real work        0.004 s, elapsed        0.004 s
  | RMS charge density error from multipole expansion :   0.552135E-02

  Integrating Hamiltonian matrix: batch-based integration.
  Time summed over all CPUs for integration: real work        1.270 s, elapsed        1.420 s

  Updating Kohn-Sham eigenvalues and eigenvectors using ELSI and the (modified) LAPACK eigensolver.
  Starting LAPACK eigensolver
  Finished Cholesky decomposition
  | Time :     0.000 s
  Finished transformation to standard eigenproblem
  | Time :     0.001 s
  Finished solving standard eigenproblem
  | Time :     0.001 s
  Finished back-transformation of eigenvectors
  | Time :     0.000 s
  Determining occupation numbers for Kohn-Sham eigenstates.
  | Chemical potential (Fermi level) in eV                 : -.11887378E+02
  | Error in electron count due to remaining E_F inaccuracy: 0.00000000E+00
  | Note that, for insulating systems, the printed 'chemical potential' value is not uniquely defined.
  | It can be anywhere in the energy gap, as long as it correctly separates occupied and unoccupied states.
  | In systems with a gap, the physically relevant chemical potential is the VBM or HOMO.
  | Maximum occupation number of highest empty state:  0.00E+00

  Current spin moment of the entire structure :
  | N = N_up - N_down :    1.00
  | S                 :    0.50
  | J                 :    2.00

  Highest occupied state (VBM) at    -12.60332981 eV
  | Occupation number:      1.00000000
  | Spin channel:        2

  Lowest unoccupied state (CBM) at  -585.37812634 eV
  | Occupation number:      0.00000000
  | Spin channel:        1

  Overall HOMO-LUMO gap:   -572.77479653 eV.

  Checking to see if s.c.f. parameters should be adjusted.
  Adjusted the Pulay mixing parameter (charge_mix_param) for an expected low-gap system. New value:   0.020000 .
  Adjusted the occupation broadening width for an expected low-gap system. New value:      0.05000000 eV.

  Total energy components:
  | Sum of eigenvalues            :         -99.04414480 Ha       -2695.12830674 eV
  | XC energy correction          :         -21.20204064 Ha        -576.93688016 eV
  | XC potential correction       :          27.28505554 Ha         742.46413731 eV
  | Free-atom electrostatic energy:         -88.15759140 Ha       -2398.89011620 eV
  | Hartree energy correction     :          10.51203683 Ha         286.04707614 eV
  | Entropy correction            :          -0.00000000 Ha          -0.00000000 eV
  | ---------------------------
  | Total energy                  :        -170.60668448 Ha       -4642.44408965 eV
  | Total energy, T -> 0          :        -170.60668448 Ha       -4642.44408965 eV  <-- do not rely on this value for anything but (periodic) metals
  | Electronic free energy        :        -170.60668448 Ha       -4642.44408965 eV

  Derived energy quantities:
  | Kinetic energy                :         167.27372446 Ha        4551.74963302 eV
  | Electrostatic energy          :        -316.67836829 Ha       -8617.25684251 eV
  | Energy correction for multipole
  | error in Hartree potential    :          -0.00939698 Ha          -0.25570490 eV
  | Sum of eigenvalues per atom                           :        -539.02566135 eV
  | Total energy (T->0) per atom                          :        -928.48881793 eV  <-- do not rely on this value for anything but (periodic) metals
  | Electronic free energy per atom                       :        -928.48881793 eV
  Evaluating new KS density.
  Integration grid: deviation in total charge (<rho> - N_e) =   7.105427E-15
  | <rho_up-rho_dn> = N_up-N_dn =     -1.0000; <|rho_up-rho_dn|> =      1.3306

  Self-consistency convergence accuracy:
  | Change of charge/spin density :  0.3983E+01  0.4078E+01
  | Change of unmixed KS charge/spin density :  0.8324E-01  0.1270E-01
  | Change of sum of eigenvalues  : -0.2602E+03 eV
  | Change of total energy        :  0.1241E+01 eV


------------------------------------------------------------
  End self-consistency iteration #     2       :  max(cpu_time)    wall_clock(cpu1)
  | Time for this iteration                     :        0.067 s           0.067 s
  | Charge density update                       :        0.012 s           0.011 s
  | Density mixing                              :        0.001 s           0.001 s
  | Hartree multipole update                    :        0.001 s           0.001 s
  | Hartree multipole summation                 :        0.005 s           0.004 s
  | Integration                                 :        0.045 s           0.045 s
[...]

  Derived energy quantities:
  | Kinetic energy                :         168.44436943 Ha        4583.60450354 eV
  | Electrostatic energy          :        -316.93749817 Ha       -8624.30812517 eV
  | Energy correction for multipole
  | error in Hartree potential    :          -0.00875286 Ha          -0.23817735 eV
  | Sum of eigenvalues per atom                           :        -530.10053098 eV
  | Total energy (T->0) per atom                          :        -925.03625246 eV  <-- do not rely on this value for anything but (periodic) metals
  | Electronic free energy per atom                       :        -925.03625246 eV

  Self-consistency convergence accuracy:
  | Change of charge/spin density :  0.5108E-05  0.4947E-05
  | Change of unmixed KS charge/spin density :  0.5878E-05  0.6576E-05
  | Change of sum of eigenvalues  : -0.2813E-04 eV
  | Change of total energy        : -0.7104E-08 eV

  Writing Kohn-Sham eigenvalues.

  Spin-up eigenvalues:

  State    Occupation    Eigenvalue [Ha]    Eigenvalue [eV]
      1       0.00000         -20.499466         -557.81886
      2       1.00000         -19.103886         -519.84319
      3       1.00000         -10.347720         -281.57580
      4       1.00000          -1.472886          -40.07926
      5       1.00000          -1.269583          -34.54712
      6       1.00000          -1.023663          -27.85528
      7       1.00000          -0.874726          -23.80252
      8       1.00000          -0.828863          -22.55450
      9       1.00000          -0.780143          -21.22878
     10       1.00000          -0.686139          -18.67081
     11       1.00000          -0.641331          -17.45150
     12       1.00000          -0.560822          -15.26074
     13       0.00000          -0.363430           -9.88943
     14       0.00000          -0.304183           -8.27725
     15       0.00000          -0.203731           -5.54381
     16       0.00000          -0.170751           -4.64637
     17       0.00000          -0.121924           -3.31771
     18       0.00000          -0.104508           -2.84382
     19       0.00000          -0.093071           -2.53259
     20       0.00000          -0.050300           -1.36874
     21       0.00000          -0.025374           -0.69046
     22       0.00000          -0.010286           -0.27990
     23       0.00000           0.002022            0.05503
     24       0.00000           0.042239            1.14938

  Spin-down eigenvalues:

  State    Occupation    Eigenvalue [Ha]    Eigenvalue [eV]
      1       1.00000         -22.077166         -600.75025
      2       1.00000         -19.103212         -519.82484
      3       1.00000         -10.347580         -281.57199
      4       1.00000          -1.519572          -41.34967
      5       1.00000          -1.270934          -34.58386
      6       1.00000          -1.048748          -28.53788
      7       1.00000          -0.907707          -24.69996
      8       1.00000          -0.860693          -23.42064
      9       1.00000          -0.784052          -21.33515
     10       1.00000          -0.687129          -18.69772
     11       1.00000          -0.643824          -17.51935
     12       1.00000          -0.563802          -15.34184
     13       0.00000          -0.365378           -9.94243
     14       0.00000          -0.313367           -8.52715
     15       0.00000          -0.217792           -5.92641
     16       0.00000          -0.170874           -4.64971
     17       0.00000          -0.122942           -3.34543
     18       0.00000          -0.105859           -2.88056
     19       0.00000          -0.097984           -2.66627
     20       0.00000          -0.049067           -1.33518
     21       0.00000          -0.027381           -0.74508
     22       0.00000          -0.012896           -0.35091
     23       0.00000           0.001785            0.04858
     24       0.00000           0.041936            1.14113

  Current spin moment of the entire structure :
  | N = N_up - N_down :    1.00
  | S                 :    0.50
  | J                 :    2.00

  Highest occupied state (VBM) at    -15.26074486 eV
  | Occupation number:      1.00000000
  | Spin channel:        1

  Lowest unoccupied state (CBM) at  -557.81885713 eV
  | Occupation number:      0.00000000
  | Spin channel:        1

  Overall HOMO-LUMO gap:   -542.55811227 eV.

  | Chemical Potential                          :   -13.00117223 eV
  | Note that, for insulating systems, the printed 'chemical potential' value is not uniquely defined.
  | It can be anywhere in the energy gap, as long as it correctly separates occupied and unoccupied states.
  | In systems with a gap, the physically relevant chemical potential is the VBM or HOMO.

  Self-consistency cycle converged.


------------------------------------------------------------
  End self-consistency iteration #    24       :  max(cpu_time)    wall_clock(cpu1)
  | Time for this iteration                     :        0.057 s           0.057 s
  | Charge density update                       :        0.000 s           0.000 s
  | Density mixing                              :        0.001 s           0.002 s
  | Hartree multipole update                    :        0.001 s           0.001 s
  | Hartree multipole summation                 :        0.005 s           0.004 s
  | Integration                                 :        0.045 s           0.045 s
  | Solution of K.-S. eqns.                     :        0.004 s           0.005 s
  | Total energy evaluation                     :        0.000 s           0.000 s

  Partial memory accounting:
  | Current value for overall tracked memory usage:
  |   Minimum:        3.290 MB (on task 26)
  |   Maximum:        3.446 MB (on task  1)
  |   Average:        3.342 MB
  | Peak value for overall tracked memory usage:
  |   Minimum:        7.233 MB (on task 26 after allocating zora_vector2)
  |   Maximum:        7.389 MB (on task  1 after allocating zora_vector2)
  |   Average:        7.285 MB
  | Largest tracked array allocation so far:
  |   Minimum:        1.332 MB (zora_vector1 on task  0)
  |   Maximum:        1.332 MB (zora_vector1 on task  0)
  |   Average:        1.332 MB
  Note:  These values currently only include a subset of arrays which are explicitly tracked.
  The "true" memory usage will be greater.
------------------------------------------------------------

------------------------------------------------------------
          Post-processing: scaled ZORA corrections to eigenvalues and total energy.

  Date     :  20250311, Time     :  155901.132
------------------------------------------------------------
  Computing correction matrix for scaled ZORA eigenvalues.
  Evaluating scaled zora correction for each Kohn-Sham eigenstate.
  Determining occupation numbers for Kohn-Sham eigenstates.
  | Chemical potential (Fermi level) in eV                 : -.12989650E+02
  | Error in electron count due to remaining E_F inaccuracy: 0.00000000E+00
  | Note that, for insulating systems, the printed 'chemical potential' value is not uniquely defined.
  | It can be anywhere in the energy gap, as long as it correctly separates occupied and unoccupied states.
  | In systems with a gap, the physically relevant chemical potential is the VBM or HOMO.
  | Maximum occupation number of highest empty state:  0.00E+00

  Writing Kohn-Sham eigenvalues.

  Spin-up eigenvalues:

  State    Occupation    Eigenvalue [Ha]    Eigenvalue [eV]
      1       0.00000         -20.483232         -557.37711
      2       1.00000         -19.089084         -519.44039
      3       1.00000         -10.343329         -281.45630
      4       1.00000          -1.472764          -40.07594
      5       1.00000          -1.269486          -34.54447
      6       1.00000          -1.023595          -27.85343
      7       1.00000          -0.874658          -23.80064
      8       1.00000          -0.828800          -22.55280
      9       1.00000          -0.780105          -21.22772
     10       1.00000          -0.686093          -18.66954
     11       1.00000          -0.641293          -17.45047
     12       1.00000          -0.560785          -15.25974
     13       0.00000          -0.363408           -9.88882
     14       0.00000          -0.304171           -8.27692
     15       0.00000          -0.203716           -5.54340
     16       0.00000          -0.170748           -4.64629
     17       0.00000          -0.121921           -3.31763
     18       0.00000          -0.104507           -2.84377
     19       0.00000          -0.093068           -2.53252
     20       0.00000          -0.050299           -1.36872
     21       0.00000          -0.025373           -0.69044
     22       0.00000          -0.010286           -0.27989
     23       0.00000           0.002022            0.05503
     24       0.00000           0.042238            1.14935

  Spin-down eigenvalues:

  State    Occupation    Eigenvalue [Ha]    Eigenvalue [eV]
      1       1.00000         -22.059103         -600.25874
      2       1.00000         -19.088409         -519.42204
      3       1.00000         -10.343189         -281.45249
      4       1.00000          -1.519442          -41.34612
      5       1.00000          -1.270837          -34.58123
      6       1.00000          -1.048673          -28.53585
      7       1.00000          -0.907631          -24.69790
      8       1.00000          -0.860623          -23.41873
      9       1.00000          -0.784014          -21.33409
     10       1.00000          -0.687082          -18.69646
     11       1.00000          -0.643787          -17.51835
     12       1.00000          -0.563765          -15.34083
     13       0.00000          -0.365355           -9.94182
     14       0.00000          -0.313354           -8.52681
     15       0.00000          -0.217775           -5.92595
     16       0.00000          -0.170871           -4.64964
     17       0.00000          -0.122939           -3.34535
     18       0.00000          -0.105857           -2.88051
     19       0.00000          -0.097981           -2.66620
     20       0.00000          -0.049066           -1.33515
     21       0.00000          -0.027380           -0.74506
     22       0.00000          -0.012896           -0.35091
     23       0.00000           0.001785            0.04857
     24       0.00000           0.041935            1.14110

  Current spin moment of the entire structure :
  | N = N_up - N_down :    1.00
  | S                 :    0.50
  | J                 :    2.00

  Highest occupied state (VBM) at    -15.25973871 eV
  | Occupation number:      1.00000000
  | Spin channel:        1

  Lowest unoccupied state (CBM) at  -557.37711031 eV
  | Occupation number:      0.00000000
  | Spin channel:        1

  Overall HOMO-LUMO gap:   -542.11737160 eV.

  Total energy components:
  | Sum of eigenvalues            :         -97.34654527 Ha       -2648.93427297 eV
  | XC energy correction          :         -21.47915850 Ha        -584.47764065 eV
  | XC potential correction       :          27.65056888 Ha         752.41026155 eV
  | Free-atom electrostatic energy:         -88.15759140 Ha       -2398.89011620 eV
  | Hartree energy correction     :           9.41807602 Ha         256.27888794 eV
  | Entropy correction            :           0.00000000 Ha           0.00000000 eV
  | ---------------------------
  | Total energy                  :        -169.91465026 Ha       -4623.61288033 eV
  | Total energy, T -> 0          :        -169.91465026 Ha       -4623.61288033 eV  <-- do not rely on this value for anything but (periodic) metals
  | Electronic free energy        :        -169.91465026 Ha       -4623.61288033 eV

  Derived energy quantities:
  | Kinetic energy                :         168.50200641 Ha        4585.17288549 eV
  | Electrostatic energy          :        -316.93749817 Ha       -8624.30812517 eV
  | Energy correction for multipole
  | error in Hartree potential    :          -0.00875286 Ha          -0.23817735 eV
  | Sum of eigenvalues per atom                           :        -529.78685459 eV
  | Total energy (T->0) per atom                          :        -924.72257607 eV  <-- do not rely on this value for anything but (periodic) metals
  | Electronic free energy per atom                       :        -924.72257607 eV
  End evaluation of scaled ZORA corrections.
  | Time for scaled ZORA corrections            :        0.053 s           0.052 s
------------------------------------------------------------

  Energy and forces in a compact form:
  | Total energy uncorrected      :         -0.462361288032905E+04 eV
  | Total energy corrected        :         -0.462361288032905E+04 eV  <-- do not rely on this value for anything but (periodic) metals
  | Electronic free energy        :         -0.462361288032905E+04 eV

  ------------------------------------ 
  Start decomposition of the XC Energy 
  ------------------------------------ 
  X and C from original XC functional choice 
  Hartree-Fock Energy :          0.000000000 Ha              0.000000000 eV
  X Energy            :        -20.704779913 Ha           -563.405727206 eV
  C Energy            :         -0.774378586 Ha            -21.071913441 eV
  XC Energy w/o HF    :        -21.479158499 Ha           -584.477640647 eV
  Total XC Energy     :        -21.479158499 Ha           -584.477640647 eV
  ------------------------------------ 
  LDA X and C from self-consistent density 
  X Energy LDA        :        -18.871669177 Ha           -513.524246144 eV
  C Energy LDA        :         -1.517515541 Ha            -41.293698876 eV
  ------------------------------------ 
  End decomposition of the XC Energy 
  ------------------------------------ 

------------------------------------------------------------

------------------------------------------------------------------------------
  Final output of selected total energy values:

  The following output summarizes some interesting total energy values
  at the end of a run (AFTER all relaxation, molecular dynamics, etc.).

  | Total energy of the DFT / Hartree-Fock s.c.f. calculation      :          -4623.612880329 eV
  | Final zero-broadening corrected energy (caution - metals only) :          -4623.612880329 eV
  | For reference only, the value of 1 Hartree used in FHI-aims is :             27.211384500 eV

  Before relying on these values, please be sure to understand exactly which
  total energy value is referred to by a given number. Different objects may
  all carry the same name 'total energy'. Definitions:

  Total energy of the DFT / Hartree-Fock s.c.f. calculation:
  | Note that this energy does not include ANY quantities calculated after the
  | s.c.f. cycle, in particular not ANY RPA, MP2, etc. many-body perturbation terms.
  | Scalar relativistic effects have been included in the 'scaled ZORA' approximation.

  Final zero-broadening corrected energy:
  | For metallic systems only, a broadening of the occupation numbers at the Fermi
  | level can be extrapolated back to zero broadening by an electron-gas inspired
  | formula. For all systems that are not real metals, this value can be
  | meaningless and should be avoided.

------------------------------------------------------------------------------
  Methods described in the following list of references were used in this FHI-aims run.
  If you publish the results, please make sure to cite these reference if they apply.
  FHI-aims is an academic code, and for our developers (often, Ph.D. students
  and postdocs), scientific credit in the community is essential.
  Thank you for helping us!

  For any use of FHI-aims, please cite:

    Volker Blum, Ralf Gehrke, Felix Hanke, Paula Havu, Ville Havu,
    Xinguo Ren, Karsten Reuter, and Matthias Scheffler
    'Ab initio molecular simulations with numeric atom-centered orbitals'
    Computer Physics Communications 180, 2175-2196 (2009)
    http://doi.org/10.1016/j.cpc.2009.06.022


  The ELSI infrastructure was used in your run to solve the Kohn-Sham electronic structure.
  Please check out https://wordpress.elsi-interchange.org to learn more.
  If scalability is important for your project, please acknowledge ELSI by citing:

    V. W-z. Yu, F. Corsetti, A. Garcia, W. P. Huhn, M. Jacquelin, W. Jia,
    B. Lange, L. Lin, J. Lu, W. Mi, A. Seifitokaldani, A. Vazquez-Mayagoitia,
    C. Yang, H. Yang, and V. Blum
    'ELSI: A unified software interface for Kohn-Sham electronic structure solvers'
    Computer Physics Communications 222, 267-285 (2018).
    http://doi.org/10.1016/j.cpc.2017.09.007


  For the real-space grid partitioning and parallelization used in this calculation, please cite:

    Ville Havu, Volker Blum, Paula Havu, and Matthias Scheffler,
    'Efficient O(N) integration for all-electron electronic structure calculation'
    'using numerically tabulated basis functions'
    Journal of Computational Physics 228, 8367-8379 (2009).
    http://doi.org/10.1016/j.jcp.2009.08.008

  Of course, there are many other important community references, e.g., those cited in the
  above references. Our list is limited to references that describe implementations in the
  FHI-aims code. The reason is purely practical (length of this list) - please credit others as well.

------------------------------------------------------------
          Leaving FHI-aims.
          Date     :  20250311, Time     :  155901.197

          Computational steps:
          | Number of self-consistency cycles          :           24
          | Number of SCF (re)initializations          :            1

          Detailed time accounting                     :  max(cpu_time)    wall_clock(cpu1)
          | Total time                                  :        2.168 s           2.179 s
          | Preparation time                            :        0.288 s           0.288 s
          | Boundary condition initalization            :        0.016 s           0.017 s
          | Grid partitioning                           :        0.023 s           0.024 s
          | Preloading free-atom quantities on grid     :        0.021 s           0.020 s
          | Free-atom superposition energy              :        0.002 s           0.002 s
          | Total time for integrations                 :        1.133 s           1.133 s
          | Total time for solution of K.-S. equations  :        0.113 s           0.116 s
          | Total time for density update               :        0.287 s           0.285 s
          | Total time for mixing                       :        0.026 s           0.027 s
          | Total time for Hartree multipole update     :        0.026 s           0.025 s
          | Total time for Hartree multipole sum        :        0.117 s           0.115 s
          | Total time for total energy evaluation      :        0.001 s           0.004 s
          | Total time for scaled ZORA corrections      :        0.053 s           0.052 s

          Partial memory accounting:
          | Residual value for overall tracked memory usage across tasks:     0.000000 MB (should be 0.000000 MB)
          | Peak values for overall tracked memory usage:
          |   Minimum:        7.233 MB (on task 26 after allocating zora_vector2)
          |   Maximum:        7.389 MB (on task  1 after allocating zora_vector2)
          |   Average:        7.285 MB
          | Largest tracked array allocation:
          |   Minimum:        1.332 MB (zora_vector1 on task  0)
          |   Maximum:        1.332 MB (zora_vector1 on task  0)
          |   Average:        1.332 MB
          Note:  These values currently only include a subset of arrays which are explicitly tracked.
          The "true" memory usage will be greater.

          Have a nice day.
------------------------------------------------------------
