------------------------------------------------------------
          Invoking FHI-aims ...

          When using FHI-aims, please cite the following reference:

            Volker Blum, Ralf Gehrke, Felix Hanke, Paula Havu,
            Ville Havu, Xinguo Ren, Karsten Reuter, and Matthias Scheffler,
            'Ab Initio Molecular Simulations with Numeric Atom-Centered Orbitals',
            Computer Physics Communications 180, 2175-2196 (2009)

          In addition, many other developments in FHI-aims are likely important for
          your particular application. If so, please cite them. A partial list of references
          is written at the end of this file. Thank you for giving credit to the authors
          of these developments.

          For general information about FHI-aims please find us at

            https://fhi-aims.org

          Online tutorials can be found at

            https://fhi-aims-club.gitlab.io/tutorials/tutorials-overview/

          For any questions about FHI-aims, please visit our slack channel at

            https://fhi-aims.slack.com

          and our main development and support site at

            https://aims-git.rz-berlin.mpg.de .

          The latter site, in particular, has a wiki to collect information, as well
          as an issue tracker to log discussions, suggest improvements, and report issues
          or bugs. https://aims-git.rz-berlin.mpg.de is also the main development site
          of the project and all new and updated code versions can be obtained there.
          Please send an email to aims-coordinators@fhi-berlin.mpg.de and we will add
          you to these sites. They are for you and everyone is welcome there.

------------------------------------------------------------



  Date     :  20241006, Time     :  220200.739
  Time zero on CPU 1             :   0.353212000000000E+00  s.
  Internal wall clock time zero  :           497484120.739  s.

  FHI-aims created a unique identifier for this run for later identification
  aims_uuid : D5F1DD7A-736B-4BB9-AA6C-746CB3F8702E

  Build configuration of the current instance of FHI-aims
  -------------------------------------------------------
  FHI-aims version      : 240605
  Commit number         : b001b2e18
  CMake host system     : Linux-6.5.0-41-generic
  CMake version         : 3.22.1
  Fortran compiler      : /opt/intel/oneapi/mpi/2021.12/bin/mpiifort (IntelLLVM) version 2024.1.0
  Fortran compiler flags: -fc=ifx -O3 -ip -fp-model precise
  C compiler            : /opt/intel/oneapi/mpi/2021.12/bin/mpiicc (IntelLLVM) version 2024.1.0
  C compiler flags      : -cc=icx -O3 -ip -fp-model precise -std=gnu99
  C++ compiler          : /opt/intel/oneapi/mpi/2021.12/bin/mpiicpc (IntelLLVM) version 2024.1.0
  C++ compiler flags    : -cxx=icpx -O3 -ip -fp-model precise -std=c++11
  HIP compiler          :
  HIP compiler flags    :
  HIP GPU arch          :
  Using MPI
  Using ScaLAPACK
  Using LibXC
  Using i-PI
  Using RLSY
  Linking against: /opt/intel/oneapi/mkl/2024.1/lib/intel64/libmkl_intel_lp64.so
                   /opt/intel/oneapi/mkl/2024.1/lib/intel64/libmkl_sequential.so
                   /opt/intel/oneapi/mkl/2024.1/lib/intel64/libmkl_core.so
                   /opt/intel/oneapi/mkl/2024.1/lib/intel64/libmkl_blacs_intelmpi_lp64.so
                   /opt/intel/oneapi/mkl/2024.1/lib/intel64/libmkl_scalapack_lp64.so
                   /opt/intel/oneapi/mkl/2024.1/lib/intel64/libmkl_core.so

  Using       32 parallel tasks.
  Task        0 on host RSL-arvutus reporting.
  Task        1 on host RSL-arvutus reporting.
  Task        2 on host RSL-arvutus reporting.
  Task        3 on host RSL-arvutus reporting.
  Task        4 on host RSL-arvutus reporting.
  Task        5 on host RSL-arvutus reporting.
  Task        6 on host RSL-arvutus reporting.
  Task        7 on host RSL-arvutus reporting.
  Task        8 on host RSL-arvutus reporting.
  Task        9 on host RSL-arvutus reporting.
  Task       10 on host RSL-arvutus reporting.
  Task       11 on host RSL-arvutus reporting.
  Task       12 on host RSL-arvutus reporting.
  Task       13 on host RSL-arvutus reporting.
  Task       14 on host RSL-arvutus reporting.
  Task       15 on host RSL-arvutus reporting.
  Task       16 on host RSL-arvutus reporting.
  Task       17 on host RSL-arvutus reporting.
  Task       18 on host RSL-arvutus reporting.
  Task       19 on host RSL-arvutus reporting.
  Task       20 on host RSL-arvutus reporting.
  Task       21 on host RSL-arvutus reporting.
  Task       22 on host RSL-arvutus reporting.
  Task       23 on host RSL-arvutus reporting.
  Task       24 on host RSL-arvutus reporting.
  Task       25 on host RSL-arvutus reporting.
  Task       26 on host RSL-arvutus reporting.
  Task       27 on host RSL-arvutus reporting.
  Task       28 on host RSL-arvutus reporting.
  Task       29 on host RSL-arvutus reporting.
  Task       30 on host RSL-arvutus reporting.
  Task       31 on host RSL-arvutus reporting.

  Memory overcommitment is allowed on your operating system.

  Obtaining array dimensions for all initial allocations:
  
  -----------------------------------------------------------------------
  Parsing control.in (first pass over file, find array dimensions only).
  The contents of control.in will be repeated verbatim below
  unless switched off by setting 'verbatim_writeout .false.' .
  in the first line of control.in .
  -----------------------------------------------------------------------
  
    xc              pbe
    relativistic    atomic_zora scalar
    KS_method	  serial
    k_grid          4 8 2
  
    spin		  collinear
    default_initial_moment	0.0
  
    output          Mulliken
  
  
  ################################################################################
  #
  #  FHI-aims code project
  #  VB, Fritz-Haber Institut, 2009
  #
  #  Suggested "light" defaults for Ti atom (to be pasted into control.in file)
  #  Be sure to double-check any results obtained with these settings for post-processing,
  #  e.g., with the "tight" defaults and larger basis sets.
  #
  ################################################################################
    species        Ti
  #     global species definitions
      nucleus             22
      mass                47.867
  #
      l_hartree           4
  #
      cut_pot             3.5          1.5  1.0
      basis_dep_cutoff    1e-4
  #
      radial_base         48 5.0
      radial_multiplier   1
      angular_grids       specified
        division   0.5171   50
        division   0.9824  110
        division   1.2917  194
        division   1.4940  302
  #      division   1.6934  434
  #      division   1.8425  590
  #      division   2.1901  770
  #      division   2.2896  974
  #      division   2.8244 1202
  #      outer_grid  974
        outer_grid  302
  ################################################################################
  #
  #  Definition of "minimal" basis
  #
  ################################################################################
  #     valence basis states
      valence      4  s   2.
      valence      3  p   6.
      valence      3  d   2.
  #     ion occupancy
      ion_occ      4  s   1.
      ion_occ      3  p   6.
      ion_occ      3  d   1.
  ################################################################################
  #
  #  Suggested additional basis functions. For production calculations,
  #  uncomment them one after another (the most important basis functions are
  #  listed first).
  #
  #  Constructed for dimers: 1.6 A, 1.85 A, 2.5 A, 3.25 A, 4.25 A
  #
  ################################################################################
  #  "First tier" - improvements: -396.25 meV to -19.41 meV
       hydro 4 f 8
       hydro 3 d 2.7
       ionic 4 p auto
  #     hydro 5 g 11.6
       ionic 4 s auto
  #  "Second tier" - improvements: -16.30 meV to -2.03 meV
  #     hydro 3 d 4.4
  #     hydro 6 h 16
  #     hydro 4 f 9.4
  #     hydro 4 p 4.5
  #     hydro 1 s 0.5
  #  "Third tier" - improvements: -6.28 meV to -0.37 meV
  #     hydro 4 d 6.4
  #     hydro 4 f 10
  #     hydro 5 g 12
  #     hydro 2 p 1.7
  #     hydro 6 h 16.4
  #     hydro 4 s 3.8
  #  Further basis functions: -0.45 meV and smaller improvements
  #     hydro 3 d 8.8
  #     hydro 5 p 18
  #     hydro 4 f 22.4
  #     hydro 5 f 7.2  # -0.16 meV
  #     hydro 3 d 2.1  # -0.11 meV
  #     hydro 5 g 7.4  # -0.09 meV
  
  
  ################################################################################
  #
  #  FHI-aims code project
  #  VB, Fritz-Haber Institut, 2009
  #
  #  Suggested "light" defaults for O atom (to be pasted into control.in file)
  #  Be sure to double-check any results obtained with these settings for post-processing,
  #  e.g., with the "tight" defaults and larger basis sets.
  #
  ################################################################################
    species        O
  #     global species definitions
      nucleus             8
      mass                15.9994
  #
      l_hartree           4
  #
      cut_pot             3.5  1.5  1.0
      basis_dep_cutoff    1e-4
  #
      radial_base         36 5.0
      radial_multiplier   1
       angular_grids specified
        division   0.2659   50
        division   0.4451  110
        division   0.6052  194
        division   0.7543  302
  #      division   0.8014  434
  #      division   0.8507  590
  #      division   0.8762  770
  #      division   0.9023  974
  #      division   1.2339 1202
  #      outer_grid 974
        outer_grid 302
  ################################################################################
  #
  #  Definition of "minimal" basis
  #
  ################################################################################
  #     valence basis states
      valence      2  s   2.
      valence      2  p   4.
  #     ion occupancy
      ion_occ      2  s   1.
      ion_occ      2  p   3.
  ################################################################################
  #
  #  Suggested additional basis functions. For production calculations,
  #  uncomment them one after another (the most important basis functions are
  #  listed first).
  #
  #  Constructed for dimers: 1.0 A, 1.208 A, 1.5 A, 2.0 A, 3.0 A
  #
  ################################################################################
  #  "First tier" - improvements: -699.05 meV to -159.38 meV
       hydro 2 p 1.8
       hydro 3 d 7.6
       hydro 3 s 6.4
  #  "Second tier" - improvements: -49.91 meV to -5.39 meV
  #     hydro 4 f 11.6
  #     hydro 3 p 6.2
  #     hydro 3 d 5.6
  #     hydro 5 g 17.6
  #     hydro 1 s 0.75
  #  "Third tier" - improvements: -2.83 meV to -0.50 meV
  #     ionic 2 p auto
  #     hydro 4 f 10.8
  #     hydro 4 d 4.7
  #     hydro 2 s 6.8
  #  "Fourth tier" - improvements: -0.40 meV to -0.12 meV
  #     hydro 3 p 5
  #     hydro 3 s 3.3
  #     hydro 5 g 15.6
  #     hydro 4 f 17.6
  #     hydro 4 d 14
  # Further basis functions - -0.08 meV and below
  #     hydro 3 s 2.1
  #     hydro 4 d 11.6
  #     hydro 3 p 16
  #     hydro 2 s 17.2
  
  ################################################################################
  #
  #  "Core" basis functions and numerical settings for O atom.
  #  Based on “tight” defaults (V. Blum, 2009).
  #
  ################################################################################
    species        O1
  #     global species definitions
      nucleus             8.
      mass                15.9994
  #
      l_hartree           6
  #
      cut_pot             4.0  2.0  1.0
      basis_dep_cutoff    1e-4
  #
      radial_base         36 7.0
      radial_multiplier   2
       angular_grids specified
        division   0.1817   50
        division   0.3417  110
        division   0.4949  194
        division   0.6251  302
        division   0.8014  434
  #      division   0.8507  590
  #      division   0.8762  770
  #      division   0.9023  974
  #      division   1.2339 1202
  #      outer_grid 974
        outer_grid  434
  ################################################################################
  #
  #  Definition of "minimal" basis
  #
  ################################################################################
  #     valence basis states
      valence      2  s   2.
      valence      2  p   4.
  #     ion occupancy
      ion_occ      2  s   1.
      ion_occ      2  p   3.
  ################################################################################
  #
  #  Suggested additional basis functions. For production calculations,
  #  uncomment them one after another (the most important basis functions are
  #  listed first).
  #
  #  Constructed for dimers: 1.0 A, 1.208 A, 1.5 A, 2.0 A, 3.0 A
  #
  ################################################################################
  #  "First tier" - improvements: -699.05 meV to -159.38 meV
       hydro 2 p 1.8
       hydro 3 d 7.6
       hydro 3 s 6.4
  #  "Second tier" - improvements: -49.91 meV to -5.39 meV
       hydro 4 f 11.6
       hydro 3 p 6.2
       hydro 3 d 5.6
       hydro 5 g 17.6
       hydro 1 s 0.75
  #  "Third tier" - improvements: -2.83 meV to -0.50 meV
       ionic 2 p auto
       hydro 4 f 10.8
       hydro 4 d 4.7
       hydro 2 s 6.8
  #  "Fourth tier" - improvements: -0.40 meV to -0.12 meV
  #     hydro 3 p 5
  #     hydro 3 s 3.3
  #     hydro 5 g 15.6
  #     hydro 4 f 17.6
  #     hydro 4 d 14
  # Further basis functions - -0.08 meV and below
  #     hydro 3 s 2.1
  #     hydro 4 d 11.6
  #     hydro 3 p 16
  #     hydro 2 s 17.2
  
  # Additional basis functions for atom with a core hole
       hydro 1 s 12.0
       hydro 1 s 10.0
       hydro 1 s 6.0
       hydro 2 s 10.0
       hydro 2 p 8.0
       hydro 2 p 6.0
       hydro 3 d 8.0
  
  -----------------------------------------------------------------------
  Completed first pass over input file control.in .
  -----------------------------------------------------------------------
  
  
  -----------------------------------------------------------------------
  Parsing geometry.in (first pass over file, find array dimensions only).
  The contents of geometry.in will be repeated verbatim below
  unless switched off by setting 'verbatim_writeout .false.' .
  in the first line of geometry.in .
  -----------------------------------------------------------------------
  
  lattice_vector 6.566127 0.000000 0.000000
  lattice_vector 0.000000 2.972883 0.000000
  lattice_vector 0.000000 0.000000 20.289704
  
  atom -0.000000 0.000000 7.500000 Ti
  atom 3.283063 1.486441 7.500000 Ti
  atom 1.276729 1.486441 7.500029 O
  atom 3.283086 0.000000 8.776767 O
  atom 6.566086 0.000000 9.506468 O
  atom 2.006317 1.486441 10.783206 O
  atom 3.283046 0.000000 10.783235 Ti
  atom 6.566109 1.486441 10.783235 Ti
  atom 4.559775 1.486441 10.783265 O
  atom 0.000005 0.000000 12.060002 O
  atom 3.283006 0.000000 12.789704 O
  
  -----------------------------------------------------------------------
  Completed first pass over input file geometry.in .
  -----------------------------------------------------------------------
  

  Basic array size parameters:
  | Number of species                 :        3
  | Number of atoms                   :       11
  | Number of lattice vectors         :        3
  | Max. basis fn. angular momentum   :        4
  | Max. atomic/ionic basis occupied n:        4
  | Max. number of basis fn. types    :        3
  | Max. radial fns per species/type  :       18
  | Max. logarithmic grid size        :     1383
  | Max. radial integration grid size :       73
  | Max. angular integration grid size:      434
  | Max. angular grid division number :        8
  | Radial grid for Hartree potential :     1383
  | Number of spin channels           :        2

------------------------------------------------------------
          Reading file control.in.
------------------------------------------------------------
  XC: Using PBE gradient-corrected functionals.
  Scalar relativistic treatment of kinetic energy: on-site free-atom approximation to ZORA.
  Kohn-Sham eigenvalues and eigenfunctions calculated by LAPACK via ELSI.
  Found k-point grid:         4         8         2
  Spin treatment: Spin density functional theory - collinear spins.
  Initial spin moment per atom:   0.0000
  Mulliken charge analysis will be performed and summarised to the main output.
  Full Mulliken charge analysis will be written to file 'Mulliken.out'.
 
  Reading configuration options for species Ti                  .
  | Found nuclear charge :  22.0000
  | Found atomic mass :    47.8670000000000      amu
  | Found l_max for Hartree potential  :   4
  | Found cutoff potl. onset [A], width [A], scale factor :    3.50000    1.50000    1.00000
  | Threshold for basis-dependent cutoff potential is   0.100000E-03
  | Found data for basic radial integration grid :    48 points, outermost radius =    5.000 A
  | Found multiplier for basic radial grid :   1
  | Found angular grid specification: user-specified.
  | Specified grid contains     5 separate shells.
  | Check grid settings after all constraints further below.
  | Found free-atom valence shell :  4 s   2.000
  | Found free-atom valence shell :  3 p   6.000
  | Found free-atom valence shell :  3 d   2.000
  | Found free-ion valence shell :  4 s   1.000
  | Found free-ion valence shell :  3 p   6.000
  | Found free-ion valence shell :  3 d   1.000
  | Found hydrogenic basis function :  4 f   8.000
  | Found hydrogenic basis function :  3 d   2.700
  | Found ionic basis function :  4 p , default cutoff radius.
  | Found ionic basis function :  4 s , default cutoff radius.
 | Encountered keyword species, ending the description of species Ti                  .
  Species Ti                  : Missing cutoff potential type.
  Defaulting to exp(1/x)/(1-x)^2 type cutoff potential.
  Species Ti: No 'logarithmic' tag. Using default grid for free atom:
  | Default logarithmic grid data [bohr] : 0.1000E-03 0.1000E+03 0.1012E+01
  | Will include ionic basis functions of  2.0-fold positive Ti                   ion.
  Species Ti: On-site basis accuracy parameter (for Gram-Schmidt orthonormalisation) not specified.
  Using default value basis_acc =  0.1000000E-03.
  Species Ti                  : Using default innermost maximum threshold i_radial=  2 for radial functions.
  Species Ti                  : Default cutoff onset for free atom density etc. : 0.35000000E+01 AA.
  Species Ti                  : Basic radial grid will be enhanced according to radial_multiplier =   1, to contain    48 grid points.
 
  Reading configuration options for species O                   .
  | Found nuclear charge :   8.0000
  | Found atomic mass :    15.9994000000000      amu
  | Found l_max for Hartree potential  :   4
  | Found cutoff potl. onset [A], width [A], scale factor :    3.50000    1.50000    1.00000
  | Threshold for basis-dependent cutoff potential is   0.100000E-03
  | Found data for basic radial integration grid :    36 points, outermost radius =    5.000 A
  | Found multiplier for basic radial grid :   1
  | Found angular grid specification: user-specified.
  | Specified grid contains     5 separate shells.
  | Check grid settings after all constraints further below.
  | Found free-atom valence shell :  2 s   2.000
  | Found free-atom valence shell :  2 p   4.000
  | Found free-ion valence shell :  2 s   1.000
  | Found free-ion valence shell :  2 p   3.000
  | Found hydrogenic basis function :  2 p   1.800
  | Found hydrogenic basis function :  3 d   7.600
  | Found hydrogenic basis function :  3 s   6.400
 | Encountered keyword species, ending the description of species O                   .
  Species O                   : Missing cutoff potential type.
  Defaulting to exp(1/x)/(1-x)^2 type cutoff potential.
  Species O : No 'logarithmic' tag. Using default grid for free atom:
  | Default logarithmic grid data [bohr] : 0.1000E-03 0.1000E+03 0.1012E+01
  Species O : On-site basis accuracy parameter (for Gram-Schmidt orthonormalisation) not specified.
  Using default value basis_acc =  0.1000000E-03.
  Species O                   : Using default innermost maximum threshold i_radial=  2 for radial functions.
  Species O                   : Default cutoff onset for free atom density etc. : 0.35000000E+01 AA.
  Species O                   : Basic radial grid will be enhanced according to radial_multiplier =   1, to contain    36 grid points.
 
  Reading configuration options for species O1                  .
  | Found nuclear charge :   8.0000
  | Found atomic mass :    15.9994000000000      amu
  | Found l_max for Hartree potential  :   6
  | Found cutoff potl. onset [A], width [A], scale factor :    4.00000    2.00000    1.00000
  | Threshold for basis-dependent cutoff potential is   0.100000E-03
  | Found data for basic radial integration grid :    36 points, outermost radius =    7.000 A
  | Found multiplier for basic radial grid :   2
  | Found angular grid specification: user-specified.
  | Specified grid contains     6 separate shells.
  | Check grid settings after all constraints further below.
  | Found free-atom valence shell :  2 s   2.000
  | Found free-atom valence shell :  2 p   4.000
  | Found free-ion valence shell :  2 s   1.000
  | Found free-ion valence shell :  2 p   3.000
  | Found hydrogenic basis function :  2 p   1.800
  | Found hydrogenic basis function :  3 d   7.600
  | Found hydrogenic basis function :  3 s   6.400
  | Found hydrogenic basis function :  4 f  11.600
  | Found hydrogenic basis function :  3 p   6.200
  | Found hydrogenic basis function :  3 d   5.600
  | Found hydrogenic basis function :  5 g  17.600
  | Found hydrogenic basis function :  1 s   0.750
  | Found ionic basis function :  2 p , default cutoff radius.
  | Found hydrogenic basis function :  4 f  10.800
  | Found hydrogenic basis function :  4 d   4.700
  | Found hydrogenic basis function :  2 s   6.800
  | Found hydrogenic basis function :  1 s  12.000
  | Found hydrogenic basis function :  1 s  10.000
  | Found hydrogenic basis function :  1 s   6.000
  | Found hydrogenic basis function :  2 s  10.000
  | Found hydrogenic basis function :  2 p   8.000
  | Found hydrogenic basis function :  2 p   6.000
  | Found hydrogenic basis function :  3 d   8.000
  Species O1                  : Missing cutoff potential type.
  Defaulting to exp(1/x)/(1-x)^2 type cutoff potential.
  Species O1: No 'logarithmic' tag. Using default grid for free atom:
  | Default logarithmic grid data [bohr] : 0.1000E-03 0.1000E+03 0.1012E+01
  | Will include ionic basis functions of  2.0-fold positive O1                   ion.
  Species O1: On-site basis accuracy parameter (for Gram-Schmidt orthonormalisation) not specified.
  Using default value basis_acc =  0.1000000E-03.
  Species O1                  : Using default innermost maximum threshold i_radial=  2 for radial functions.
  Species O1                  : Default cutoff onset for free atom density etc. : 0.40000000E+01 AA.
  Species O1                  : Basic radial grid will be enhanced according to radial_multiplier =   2, to contain    73 grid points.
 
  Finished reading input file 'control.in'.
 
------------------------------------------------------------


------------------------------------------------------------
          Reading geometry description geometry.in.
------------------------------------------------------------
  | The smallest distance between any two atoms is         1.95947539 AA.
  | The first atom of this pair is atom number                      1 .
  | The second atom of this pair is atom number                     3 .
  | Wigner-Seitz cell of the first atom image           0     0     0 .
  | (The Wigner-Seitz cell of the second atom is 0 0 0  by definition.)

  Symmetry information by spglib:
  | Precision set to  0.1E-04
  | Number of Operations  : 2
  | Space group           : 6
  | International         : Pm
  | Schoenflies           : Cs^1
  Input structure read successfully.
  The structure contains       11 atoms,  and a total of        144.000 electrons.

  Input geometry:
  | Unit cell:
  |        6.56612700        0.00000000        0.00000000
  |        0.00000000        2.97288300        0.00000000
  |        0.00000000        0.00000000       20.28970400
  | Atomic structure:
  |       Atom                x [A]            y [A]            z [A]
  |    1: Species Ti            0.00000000        0.00000000        7.50000000
  |    2: Species Ti            3.28306300        1.48644100        7.50000000
  |    3: Species O             1.27672900        1.48644100        7.50002900
  |    4: Species O             3.28308600        0.00000000        8.77676700
  |    5: Species O             6.56608600        0.00000000        9.50646800
  |    6: Species O             2.00631700        1.48644100       10.78320600
  |    7: Species Ti            3.28304600        0.00000000       10.78323500
  |    8: Species Ti            6.56610900        1.48644100       10.78323500
  |    9: Species O             4.55977500        1.48644100       10.78326500
  |   10: Species O             0.00000500        0.00000000       12.06000200
  |   11: Species O             3.28300600        0.00000000       12.78970400

  Lattice parameters for 3D lattice (in Angstroms) :     6.566127    2.972883   20.289704
  Angle(s) between unit vectors (in degrees)       :    90.000000   90.000000   90.000000


  Quantities derived from the lattice vectors (in Angstrom^-1):
  | Reciprocal lattice vector 1:  0.956909  0.000000  0.000000
  | Reciprocal lattice vector 2:  0.000000  2.113499  0.000000
  | Reciprocal lattice vector 3:  0.000000  0.000000  0.309674
  | Unit cell volume                               :   0.396062E+03  Angstrom^3

  Fractional coordinates:
                         L1                L2                L3
       atom_frac         0.00000000        0.00000000        0.36964561  Ti
       atom_frac         0.49999992        0.49999983        0.36964561  Ti
       atom_frac         0.19444172        0.49999983        0.36964704  O
       atom_frac         0.50000343        0.00000000        0.43257245  O
       atom_frac         0.99999376        0.00000000        0.46853655  O
       atom_frac         0.30555562        0.49999983        0.53146197  O
       atom_frac         0.49999733        0.00000000        0.53146340  Ti
       atom_frac         0.99999726        0.49999983        0.53146340  Ti
       atom_frac         0.69443905        0.49999983        0.53146487  O
       atom_frac         0.00000076        0.00000000        0.59439024  O
       atom_frac         0.49999124        0.00000000        0.63035439  O

  Initial moments and charges:
  |  Atom   Moment         Charge        Species
  |     1   0.000000E+00   0.000000E+00   Ti
  |     2   0.000000E+00   0.000000E+00   Ti
  |     3   0.000000E+00   0.000000E+00   O
  |     4   0.000000E+00   0.000000E+00   O
  |     5   0.000000E+00   0.000000E+00   O
  |     6   0.000000E+00   0.000000E+00   O
  |     7   0.000000E+00   0.000000E+00   Ti
  |     8   0.000000E+00   0.000000E+00   Ti
  |     9   0.000000E+00   0.000000E+00   O
  |    10   0.000000E+00   0.000000E+00   O
  |    11   0.000000E+00   0.000000E+00   O

  Slab Identifier: This is Z-oriented slab and maximum thickness of the vacuum is: 15.000 Angstrom.
 
  Finished reading input file 'geometry.in'.
 

 
  Consistency checks for stacksize environment parameter are next.
 
  | Maximum stacksize for task 0: unlimited
  | Maximum stacksize for task 1: unlimited
  | Maximum stacksize for task 2: unlimited
  | Maximum stacksize for task 3: unlimited
  | Maximum stacksize for task 4: unlimited
  | Maximum stacksize for task 5: unlimited
  | Maximum stacksize for task 6: unlimited
  | Maximum stacksize for task 7: unlimited
  | Maximum stacksize for task 8: unlimited
  | Maximum stacksize for task 9: unlimited
  | Maximum stacksize for task 10: unlimited
  | Maximum stacksize for task 11: unlimited
  | Maximum stacksize for task 12: unlimited
  | Maximum stacksize for task 13: unlimited
  | Maximum stacksize for task 14: unlimited
  | Maximum stacksize for task 15: unlimited
  | Maximum stacksize for task 16: unlimited
  | Maximum stacksize for task 17: unlimited
  | Maximum stacksize for task 18: unlimited
  | Maximum stacksize for task 19: unlimited
  | Maximum stacksize for task 20: unlimited
  | Maximum stacksize for task 21: unlimited
  | Maximum stacksize for task 22: unlimited
  | Maximum stacksize for task 23: unlimited
  | Maximum stacksize for task 24: unlimited
  | Maximum stacksize for task 25: unlimited
  | Maximum stacksize for task 26: unlimited
  | Maximum stacksize for task 27: unlimited
  | Maximum stacksize for task 28: unlimited
  | Maximum stacksize for task 29: unlimited
  | Maximum stacksize for task 30: unlimited
  | Maximum stacksize for task 31: unlimited
  | Current stacksize for task 0: unlimited
  | Current stacksize for task 1: unlimited
  | Current stacksize for task 2: unlimited
  | Current stacksize for task 3: unlimited
  | Current stacksize for task 4: unlimited
  | Current stacksize for task 5: unlimited
  | Current stacksize for task 6: unlimited
  | Current stacksize for task 7: unlimited
  | Current stacksize for task 8: unlimited
  | Current stacksize for task 9: unlimited
  | Current stacksize for task 10: unlimited
  | Current stacksize for task 11: unlimited
  | Current stacksize for task 12: unlimited
  | Current stacksize for task 13: unlimited
  | Current stacksize for task 14: unlimited
  | Current stacksize for task 15: unlimited
  | Current stacksize for task 16: unlimited
  | Current stacksize for task 17: unlimited
  | Current stacksize for task 18: unlimited
  | Current stacksize for task 19: unlimited
  | Current stacksize for task 20: unlimited
  | Current stacksize for task 21: unlimited
  | Current stacksize for task 22: unlimited
  | Current stacksize for task 23: unlimited
  | Current stacksize for task 24: unlimited
  | Current stacksize for task 25: unlimited
  | Current stacksize for task 26: unlimited
  | Current stacksize for task 27: unlimited
  | Current stacksize for task 28: unlimited
  | Current stacksize for task 29: unlimited
  | Current stacksize for task 30: unlimited
  | Current stacksize for task 31: unlimited
 
  Consistency checks for the contents of control.in are next.
 
  MPI_IN_PLACE appears to work with this MPI implementation.
  | Keeping use_mpi_in_place .true. (see manual).
  Target number of points in a grid batch is not set. Defaulting to  100
  Method for grid partitioning is not set. Defaulting to parallel hash+maxmin partitioning.
  Batch size limit is not set. Defaulting to    200
  By default, will store active basis functions for each batch.
  If in need of memory, prune_basis_once .false. can be used to disable this option.
  communication_type for Hartree potential was not specified.
  Defaulting to calc_hartree .
  Defaulting to Pulay charge density mixer.
  Pulay mixer: Number of relevant iterations not set.
  Defaulting to    8 iterations.
  Pulay mixer: Number of initial linear mixing iterations not set.
  Defaulting to    0 iterations.
  Work space size for distributed Hartree potential not set.
  Defaulting to   0.200000E+03 MB.
  Mixing parameter for charge density mixing has not been set.
  Using default: charge_mix_param =     0.0500.
  The mixing parameter will be adjusted in iteration number     2 of each s.c.f. cycle (i.e., each geometry step).
  Mixing parameter for spin density mixing has not been set.
  Using charge_mix_param as default:     0.0500.
  Algorithm-dependent basis array size parameters:
  | n_max_pulay                         :        8
  Maximum number of self-consistency iterations not provided.
  Presetting  1000 iterations.
  Presetting      1001 iterations before the initial mixing cycle
  is restarted anyway using the sc_init_iter criterion / keyword.
  Presetting a factor      1.000 between actual scf density residual
  and density convergence criterion sc_accuracy_rho below which sc_init_iter
  takes no effect.
 * No s.c.f. convergence criteria (sc_accuracy_*) were provided in control.in.
 * The run will proceed with a reasonable default guess, but please check whether.
 * the s.c.f. cycles seem to take too much or too little time.
  Calculation of forces was not defined in control.in. No forces will be calculated.
  Geometry relaxation not requested: no relaxation will be performed.
 * Notice: The s.c.f. convergence criterion sc_accuracy_rho was not provided.
 * We used to stop in this case, and ask the user to provide reasonable
 * scf convergence criteria. However, this led some users to employ criteria
 * that led to extremely long run times, e.g., for simple relaxation.
 * We now preset a default value for sc_accuracy_rho if it is not set.
 * You may still wish to check if this setting is too tight or too loose for your needs.
 * Based on n_atoms and forces and force-correction status, FHI-aims chose sc_accuracy_rho =  0.135401E-05 .
  No accuracy limit for integral partition fn. given. Defaulting to  0.1000E-14.
  No threshold value for u(r) in integrations given. Defaulting to  0.1000E-05.
  No occupation type (smearing scheme) given. Defaulting to Gaussian broadening, width =  0.1000E-01 eV.
  The width will be adjusted in iteration number     2 of each s.c.f. cycle (i.e., each geometry step).
  No accuracy for occupation numbers given. Defaulting to  0.1000E-12.
  No threshold value for occupation numbers given. Defaulting to  0.0000E+00.
  No accuracy for fermi level given. Defaulting to  0.1000E-19.
  Maximum # of iterations to find E_F not set. Defaulting to  200.
  Will not use alltoall communication since running on < 1024 CPUs.
  Threshold for basis singularities not set.
  Default threshold for basis singularities:  0.1000E-04
  partition_type (choice of integration weights) for integrals was not specified.
  | Using a version of the partition function of Stratmann and coworkers ('stratmann_sparse').
  | At each grid point, the set of atoms used to build the partition table is smoothly restricted to
  | only those atoms whose free-atom density would be non-zero at that grid point.
  Partitioning for Hartree potential was not defined. Using partition_type for integrals.
  | Adjusted default value of keyword multip_moments_threshold to:       0.10000000E-11
  | This value may affect high angular momentum components of the Hartree potential in periodic systems.
  Angular momentum expansion for Kerker preconditioner not set explicitly.
  | Using default value of   0
  No explicit requirement for turning off preconditioner.
  | By default, it will be turned off when the charge convergence reaches
  | sc_accuracy_rho  =   0.135401E-05
  No special mixing parameter while Kerker preconditioner is on.
  Using default: charge_mix_param =     0.0500.
  No q(lm)/r^(l+1) cutoff set for long-range Hartree potential.
  | Using default value of  0.100000E-09 .
  | Verify using the multipole_threshold keyword.
  Defaulting to new monopole extrapolation.
  Density update method: automatic selection selected.
  Using density matrix based charge density update.
  Using density matrix based charge density update.
  Using packed matrix style: index .
  Defaulting to use time-reversal symmetry for k-point grid.
  Charge integration errors on the 3D integration grid will be compensated
  by explicit normalization and distribution of residual charges.
  Use the "compensate_multipole_errors" flag to change this behaviour.
  Set 'collect_eigenvectors' to be '.true.' for all serial calculations. This is mandatory.
  Set 'collect_eigenvectors' to be '.true.' for KS_method lapack_fast and serial.
  Found potential conflicts with setting 'use_local_index' for this calculation. Will not set it.
 
  Consistency checks for the contents of geometry.in are next.
 

  Range separation radius for Ewald summation (hartree_convergence_parameter):      4.79960566 bohr.
  Number of empty states per atom not set in control.in - providing a guess from actual geometry.
  | Total number of empty states used during s.c.f. cycle:       43
  If you use a very high smearing, use empty_states (per atom!) in control.in to increase this value.

  Structure-dependent array size parameters: 
  | Number of distinct atom types in initial rho :        2
  | Maximum number of distinct radial functions  :       39
  | Maximum number of basis functions            :      222
  | Number of Kohn-Sham states (occupied + empty):      115
------------------------------------------------------------
  After read_input_data [GB]:    710.09

  Performing system and environment tests:
  *** Environment variable OMP_NUM_THREADS is not set
  *** For performance reasons you might want to set it to 1
  | Checking for ScaLAPACK...
  | Testing pdtran()...
  | All pdtran() tests passed.
  After prepare_system [GB]:    709.98

------------------------------------------------------------
          Preparing all fixed parts of the calculation.
------------------------------------------------------------
  Determining machine precision:
    2.225073858507201E-308
  Setting up grids for atomic and cluster calculations.

  Creating wave function, potential, and density for free atoms.
  Runtime choices for atomic solver:
  | atomic solver xc        : PBE
  | compute density gradient: 1
  | compute kinetic density : F

  Species: Ti

  List of occupied orbitals and eigenvalues:
    n    l              occ      energy [Ha]    energy [eV]
    1    0           2.0000      -179.959082     -4896.9358
    2    0           2.0000       -19.727662      -536.8170
    3    0           2.0000        -2.283029       -62.1244
    4    0           2.0000        -0.148384        -4.0377
    2    1           6.0000       -16.317278      -444.0157
    3    1           6.0000        -1.409348       -38.3503
    3    2           2.0000        -0.139340        -3.7916


  Species: O

  List of occupied orbitals and eigenvalues:
    n    l              occ      energy [Ha]    energy [eV]
    1    0           2.0000       -18.926989      -515.0296
    2    0           2.0000        -0.880247       -23.9527
    2    1           4.0000        -0.331514        -9.0210


  Species: O1

  List of occupied orbitals and eigenvalues:
    n    l              occ      energy [Ha]    energy [eV]
    1    0           2.0000       -18.927378      -515.0401
    2    0           2.0000        -0.880539       -23.9607
    2    1           4.0000        -0.331811        -9.0290

  Spin-polarized or charged system:
  Charge density initialized according to selected moments and charges.

  Creating spin-polarized density from free atoms.

  Species: Ti
  Charge:   0.000000
  Moment:   0.000000

  List of occupied orbitals and eigenvalues:
    n    l      energy [Ha]    energy [eV]    occupation
  Spin-up
    1    0      -179.959082     -4896.9358     1.00000000
    2    0       -19.727662      -536.8170     1.00000000
    3    0        -2.283029       -62.1244     1.00000000
    4    0        -0.148384        -4.0377     1.00000000
    2    1       -16.317278      -444.0157     3.00000000
    3    1        -1.409348       -38.3503     3.00000000
    3    2        -0.139340        -3.7916     1.00000000
  Spin-down
    1    0      -179.959082     -4896.9358     1.00000000
    2    0       -19.727662      -536.8170     1.00000000
    3    0        -2.283029       -62.1244     1.00000000
    4    0        -0.148384        -4.0377     1.00000000
    2    1       -16.317278      -444.0157     3.00000000
    3    1        -1.409348       -38.3503     3.00000000
    3    2        -0.139340        -3.7916     1.00000000


  Species: O
  Charge:   0.000000
  Moment:   0.000000

  List of occupied orbitals and eigenvalues:
    n    l      energy [Ha]    energy [eV]    occupation
  Spin-up
    1    0       -18.926989      -515.0296     1.00000000
    2    0        -0.880247       -23.9527     1.00000000
    2    1        -0.331514        -9.0210     2.00000000
  Spin-down
    1    0       -18.926989      -515.0296     1.00000000
    2    0        -0.880247       -23.9527     1.00000000
    2    1        -0.331514        -9.0210     2.00000000


  Adding cutoff potential to free-atom effective potential.
  Creating fixed part of basis set: Ionic, confined, hydrogenic.
 
  Ti                   ion:

  List of free ionic orbitals and eigenvalues:
    n    l      energy [Ha]    energy [eV]
    1    0      -180.819616     -4920.3521
    2    0       -20.608761      -560.7929
    3    0        -3.115729       -84.7833
    4    0        -0.697188       -18.9715
    2    1       -17.196209      -467.9327
    3    1        -2.231296       -60.7167
    3    2        -0.911363       -24.7995


  List of ionic basis orbitals and eigenvalues:
    n    l      energy [Ha]    energy [eV]    outer radius [A]
    4    1        -0.517739       -14.0884       4.592117
    4    0        -0.696824       -18.9615       4.536321

 
  Ti                   hydrogenic:
 
  List of hydrogenic basis orbitals: 
    n    l      effective z      eigenvalue [eV]  inner max. [A]     outer max. [A]     outer radius [A]   
    4    3         8.000000       -54.4222           1.059019           1.059019           4.267343
    3    2         2.700000       -10.7798           1.726925           1.726925           4.592117
 
 
  O                    hydrogenic:
 
  List of hydrogenic basis orbitals: 
    n    l      effective z      eigenvalue [eV]  inner max. [A]     outer max. [A]     outer radius [A]   
    2    1         1.800000       -10.9749           1.164242           1.164242           4.578029
    3    2         7.600000       -87.3180           0.624125           0.624125           3.251020
    3    0         6.400000       -61.9207           0.061167           1.081902           4.001998
 
 
  O1                   ion:

  List of free ionic orbitals and eigenvalues:
    n    l      energy [Ha]    energy [eV]
    1    0       -20.485570      -557.4407
    2    0        -2.134830       -58.0917
    2    1        -1.577627       -42.9294


  List of ionic basis orbitals and eigenvalues:
    n    l      energy [Ha]    energy [eV]    outer radius [A]
    2    1        -1.577621       -42.9293       3.541477

 
  O1                   hydrogenic:
 
  List of hydrogenic basis orbitals: 
    n    l      effective z      eigenvalue [eV]  inner max. [A]     outer max. [A]     outer radius [A]   
    2    1         1.800000       -11.0118           1.178562           1.178562           5.432602
    3    2         7.600000       -87.3182           0.624125           0.624125           3.541477
    3    0         6.400000       -61.9209           0.061167           1.081902           4.306578
    4    3        11.600000      -114.4238           0.731631           0.731631           3.585037
    3    1         6.200000       -58.1113           0.255680           1.030270           4.306578
    3    2         5.600000       -47.4081           0.847233           0.847233           4.413171
    5    4        17.600000      -168.5799           0.749740           0.749740           3.372465
    1    0         0.750000        -7.6499           0.705284           0.705284           5.366593
    4    3        10.800000       -99.1854           0.787313           0.787313           3.764702
    4    2         4.700000       -18.6841           0.758962           2.365807           5.499423
    2    0         6.800000      -157.2818           0.059689           0.406863           2.739620
    1    0        12.000000     -1959.2197           0.043971           0.043971           0.816724
    1    0        10.000000     -1360.5692           0.052821           0.052821           0.981101
    1    0         6.000000      -489.8049           0.088266           0.088266           1.561224
    2    0        10.000000      -340.1423           0.040365           0.278524           2.093567
    2    1         8.000000      -217.6911           0.265231           0.265231           2.365807
    2    1         6.000000      -122.4512           0.351348           0.351348           2.841960
    3    2         8.000000       -96.7515           0.594340           0.594340           3.455938
 
  Creating atomic-like basis functions for current effective potential.

  Species Ti                  :

  List of atomic basis orbitals and eigenvalues:
    n    l      energy [Ha]    energy [eV]    outer radius [A]
    1    0      -179.959082     -4896.9358       0.490254
    2    0       -19.727662      -536.8170       1.491292
    3    0        -2.283029       -62.1244       4.014314
    4    0        -0.148384        -4.0377       4.592117
    2    1       -16.317278      -444.0157       1.585290
    3    1        -1.409348       -38.3503       4.267343
    3    2        -0.139340        -3.7916       4.536321


  Species O                   :

  List of atomic basis orbitals and eigenvalues:
    n    l      energy [Ha]    energy [eV]    outer radius [A]
    1    0       -18.926989      -515.0296       1.415765
    2    0        -0.880247       -23.9527       4.413171
    2    1        -0.331514        -9.0210       4.522403


  Species O1                  :

  List of atomic basis orbitals and eigenvalues:
    n    l      energy [Ha]    energy [eV]    outer radius [A]
    1    0       -18.927378      -515.0401       1.415765
    2    0        -0.880539       -23.9607       5.048385
    2    1        -0.331811        -9.0290       5.301386

  Assembling full basis from fixed parts.
  | Species Ti :   atomic orbital   1 s accepted.
  | Species Ti :   atomic orbital   2 s accepted.
  | Species Ti :   atomic orbital   3 s accepted.
  | Species Ti :    ionic orbital   4 s accepted.
  | Species Ti :   atomic orbital   4 s accepted.
  | Species Ti :   atomic orbital   2 p accepted.
  | Species Ti :   atomic orbital   3 p accepted.
  | Species Ti :    ionic orbital   4 p accepted.
  | Species Ti :   atomic orbital   3 d accepted.
  | Species Ti :    hydro orbital   3 d accepted.
  | Species Ti :    hydro orbital   4 f accepted.
  | Species O :   atomic orbital   1 s accepted.
  | Species O :    hydro orbital   3 s accepted.
  | Species O :   atomic orbital   2 s accepted.
  | Species O :   atomic orbital   2 p accepted.
  | Species O :    hydro orbital   2 p accepted.
  | Species O :    hydro orbital   3 d accepted.
  | Species O1 :    hydro orbital   1 s accepted.
  | Species O1 :    hydro orbital   1 s accepted.
  | Species O1 :   atomic orbital   1 s accepted.
  | Species O1 :    hydro orbital   1 s accepted.
  | Species O1 :    hydro orbital   2 s accepted.
  | Species O1 :    hydro orbital   2 s accepted.
  | Species O1 :    hydro orbital   3 s accepted.
  | Species O1 :   atomic orbital   2 s accepted.
  | Species O1 :    hydro orbital   1 s accepted.
  | Species O1 :    hydro orbital   2 p accepted.
  | Species O1 :    hydro orbital   2 p accepted.
  | Species O1 :    ionic orbital   2 p accepted.
  | Species O1 :    hydro orbital   3 p accepted.
  | Species O1 :   atomic orbital   2 p accepted.
  | Species O1 :    hydro orbital   2 p accepted.
  | Species O1 :    hydro orbital   3 d accepted.
  | Species O1 :    hydro orbital   3 d accepted.
  | Species O1 :    hydro orbital   3 d accepted.
  | Species O1 :    hydro orbital   4 d accepted.
  | Species O1 :    hydro orbital   4 f accepted.
  | Species O1 :    hydro orbital   4 f accepted.
  | Species O1 :    hydro orbital   5 g accepted.
 
  Basis size parameters after reduction:
  | Total number of radial functions:       39
  | Total number of basis functions :      222
 
  Per-task memory consumption for arrays in subroutine allocate_ext:
  |          13.816912MB.
  Testing on-site integration grid accuracy.
  |  Species  Function  <phi|h_atom|phi> (log., in eV)  <phi|h_atom|phi> (rad., in eV)
           1        1              -4896.9357674450              -4896.9322830202
           1        2               -536.8170048508               -536.8169722333
           1        3                -62.1243896260                -62.1243889283
           1        4                 -3.2653235630                 -3.2692838808
           1        5                  6.7987747276                  6.5460721883 ***
           1        6               -444.0157161949               -444.0157165810
           1        7                -38.3503235548                -38.3503234963
           1        8                  0.2923930877                  0.2745948116
           1        9                 -3.7933400649                 -3.7959244177
           1       10                  6.3288803616                  6.2510614929 ***
           1       11                 27.8451455747                 27.8452636416
           2       12               -515.0295626295               -515.0294562738
           2       13                 15.1698434419                 15.1699322204
           2       14                -21.6038822678                -21.6039118105
           2       15                 -9.0211123393                 -9.0212703513
           2       16                  8.3047696391                  8.2854840999
           2       17                 45.8428042125                 45.8427461222
           3       18               -272.9322507263               -272.9201922371
           3       19               1665.9089384428               1665.9689459310 ***
           3       20               2095.2037268945               2095.2740316190 ***
           3       21               3047.3679718515               3047.0126721058 ***
           3       22               3234.6000205573               3231.5687071925 ***
           3       23               2428.4660356492               2422.2375593106 ***
           3       24                896.7802862158                893.3913916681 ***
           3       25               3128.2108268826               3108.2674944362 ***
           3       26                 71.8616615187                 71.1575837008 ***
           3       27                 15.4122562036                 15.4122564500
           3       28                101.7989356251                101.7989355629
           3       29                121.1064459338                121.1064460856
           3       30                271.5759585347                271.5759823164
           3       31                159.3966255928                159.3962927972
           3       32                153.6473243407                153.6504704037
           3       33                 50.7421815376                 50.7421815946
           3       34                 88.5010368311                 88.5010331056
           3       35                 82.9872957917                 82.9873669214
           3       36                 36.7418806245                 36.7419113216
           3       37                 85.4133898762                 85.4133899074
           3       38                115.1018427582                115.1018451832
           3       39                142.1023296234                142.1023296272
 * Note: Onsite integrals marked "***" above are less accurate than
 * onsite_accuracy_threshold =    0.03000 eV. Usually, this is harmless.
 * When in doubt, tighten the "radial" and/or "radial_multiplier" flags to check.

  Preparing densities etc. for the partition functions (integrals / Hartree potential).

  Preparations completed.
  max(cpu_time)          :      0.643 s.
  Wall clock time (cpu1) :      0.641 s.
------------------------------------------------------------
  After prepare_scf [GB]:    708.58

  Initializing index lists of integration centers etc. from given atomic structure:
  Mapping all atomic coordinates to central unit cell.

  Initializing the k-points
  Using symmetry for reducing the k-points
  | k-points reduced from:       64 to       36
  | Number of k-points                             :        36
  The eigenvectors in the calculations are COMPLEX.
  | K-points in task   0:         1
  | K-points in task   1:         2
  | K-points in task   2:         2
  | K-points in task   3:         2
  | K-points in task   4:         2
  | K-points in task   5:         1
  | K-points in task   6:         1
  | K-points in task   7:         1
  | K-points in task   8:         1
  | K-points in task   9:         1
  | K-points in task  10:         1
  | K-points in task  11:         1
  | K-points in task  12:         1
  | K-points in task  13:         1
  | K-points in task  14:         1
  | K-points in task  15:         1
  | K-points in task  16:         1
  | K-points in task  17:         1
  | K-points in task  18:         1
  | K-points in task  19:         1
  | K-points in task  20:         1
  | K-points in task  21:         1
  | K-points in task  22:         1
  | K-points in task  23:         1
  | K-points in task  24:         1
  | K-points in task  25:         1
  | K-points in task  26:         1
  | K-points in task  27:         1
  | K-points in task  28:         1
  | K-points in task  29:         1
  | K-points in task  30:         1
  | K-points in task  31:         1
  | Number of basis functions in the Hamiltonian integrals :      3636
  | Number of basis functions in a single unit cell        :       222
  | Number of centers in hartree potential         :      1203
  | Number of centers in hartree multipole         :       555
  | Number of centers in electron density summation:       435
  | Number of centers in basis integrals           :       461
  | Number of centers in integrals                 :       210
  | Number of centers in hamiltonian               :       609
  | Consuming         64 KiB for k_phase.
  | Number of super-cells (origin) [n_cells]                     :         675
  | Number of super-cells (after PM_index) [n_cells]             :         114
  | Number of super-cells in hamiltonian [n_cells_in_hamiltonian]:         114
  | Size of matrix packed + index [n_hamiltonian_matrix_size] :      248009
  After initialize_bc_dependent_lists [GB]:    708.60

------------------------------------------------------------
          Begin self-consistency loop: Initialization.

          Date     :  20241006, Time     :  220201.494
------------------------------------------------------------
  Available memory per node after initialize_hartree_non_periodic_ewald [GB]:    708.60
  | Estimated reciprocal-space cutoff momentum G_max:         1.92520692 bohr^-1 .
  | Reciprocal lattice points for long-range Hartree potential:     330
  Available memory per node after initialize_recip_hartree_potential [GB]:    708.60
  Available memory per node after initialize_scalapack [GB]:    708.60
  Available memory per node after aims_elsi_init_scf [GB]:    708.60
  Available memory per node after initialize_fixed_grids [GB]:    708.60
  Partitioning the integration grid into batches with parallel hashing+maxmin method.
  | Number of batches:      718
  | Maximal batch size:     196
  | Minimal batch size:       1
  | Average batch size:      97.788
  | Standard deviation of batch sizes:      23.726

  Integration load balanced across    32 MPI tasks.
  Work distribution over tasks is as follows:
  Task     0 has       2200 integration points.
  Task     1 has       2231 integration points.
  Task     2 has       2214 integration points.
  Task     3 has       2163 integration points.
  Task     4 has       2203 integration points.
  Task     5 has       2166 integration points.
  Task     6 has       2203 integration points.
  Task     7 has       2156 integration points.
  Task     8 has       2230 integration points.
  Task     9 has       2212 integration points.
  Task    10 has       2247 integration points.
  Task    11 has       2203 integration points.
  Task    12 has       2176 integration points.
  Task    13 has       2166 integration points.
  Task    14 has       2237 integration points.
  Task    15 has       2237 integration points.
  Task    16 has       2210 integration points.
  Task    17 has       2170 integration points.
  Task    18 has       2220 integration points.
  Task    19 has       2219 integration points.
  Task    20 has       2169 integration points.
  Task    21 has       2153 integration points.
  Task    22 has       2182 integration points.
  Task    23 has       2215 integration points.
  Task    24 has       2176 integration points.
  Task    25 has       2212 integration points.
  Task    26 has       2182 integration points.
  Task    27 has       2156 integration points.
  Task    28 has       2160 integration points.
  Task    29 has       2210 integration points.
  Task    30 has       2168 integration points.
  Task    31 has       2166 integration points.
  Available memory per node after partition_grid [GB]:    708.58
  Initializing partition tables, free-atom densities, potentials, etc. across the integration grid (initialize_grid_storage).
  | initialize_grid_storage: Actual outermost partition radius vs. multipole_radius_free
  | (-- VB: in principle, multipole_radius_free should be larger, hence this output)
  | Species        1: Confinement radius =              4.999999999999999 AA, multipole_radius_free =              5.002391649902235 AA.
  | Species        1: outer_partition_radius set to              5.002391649902235 AA .
  | Species        2: Confinement radius =              4.999999999999999 AA, multipole_radius_free =              5.048384829883283 AA.
  | Species        2: outer_partition_radius set to              5.048384829883283 AA .
  | Species        3: Confinement radius =              6.000000000000000 AA, multipole_radius_free =              6.064445521808699 AA.
  | Species        3: outer_partition_radius set to              6.064445521808699 AA .
  | The sparse table of interatomic distances needs       1169.59 kbyte instead of      1700.17 kbyte of memory.
  | Net number of integration points:    70212
  | of which are non-zero points    :    59474
  | Numerical average free-atom electrostatic potential    :     -5.47847111 eV
  Available memory per node after initialize_grid_storage_p1 [GB]:    708.56
  Renormalizing the initial density to the exact electron count on the 3D integration grid.
  | Initial density: Formal number of electrons (from input files) :     144.0000000000
  | Integrated number of electrons on 3D grid     :     143.9997425669
  | Charge integration error                      :      -0.0002574331
  | Normalization factor for density and gradient :       1.0000017877
  Renormalizing the free-atom superposition density to the exact electron count on the 3D integration grid.
  | Formal number of electrons (from input files) :     144.0000000000
  | Integrated number of electrons on 3D grid     :     143.9997425669
  | Charge integration error                      :      -0.0002574331
  | Normalization factor for density and gradient :       1.0000017877
  Obtaining max. number of non-zero basis functions in each batch (get_n_compute_maxes).
  | Maximal number of non-zero basis functions:      688 in task     0
  | Maximal number of non-zero basis functions:      646 in task     1
  | Maximal number of non-zero basis functions:      701 in task     2
  | Maximal number of non-zero basis functions:      631 in task     3
  | Maximal number of non-zero basis functions:      678 in task     4
  | Maximal number of non-zero basis functions:      629 in task     5
  | Maximal number of non-zero basis functions:      680 in task     6
  | Maximal number of non-zero basis functions:      647 in task     7
  | Maximal number of non-zero basis functions:      659 in task     8
  | Maximal number of non-zero basis functions:      672 in task     9
  | Maximal number of non-zero basis functions:      652 in task    10
  | Maximal number of non-zero basis functions:      669 in task    11
  | Maximal number of non-zero basis functions:      620 in task    12
  | Maximal number of non-zero basis functions:      680 in task    13
  | Maximal number of non-zero basis functions:      670 in task    14
  | Maximal number of non-zero basis functions:      701 in task    15
  | Maximal number of non-zero basis functions:      669 in task    16
  | Maximal number of non-zero basis functions:      646 in task    17
  | Maximal number of non-zero basis functions:      651 in task    18
  | Maximal number of non-zero basis functions:      700 in task    19
  | Maximal number of non-zero basis functions:      621 in task    20
  | Maximal number of non-zero basis functions:      666 in task    21
  | Maximal number of non-zero basis functions:      662 in task    22
  | Maximal number of non-zero basis functions:      685 in task    23
  | Maximal number of non-zero basis functions:      644 in task    24
  | Maximal number of non-zero basis functions:      694 in task    25
  | Maximal number of non-zero basis functions:      685 in task    26
  | Maximal number of non-zero basis functions:      684 in task    27
  | Maximal number of non-zero basis functions:      630 in task    28
  | Maximal number of non-zero basis functions:      647 in task    29
  | Maximal number of non-zero basis functions:      653 in task    30
  | Maximal number of non-zero basis functions:      642 in task    31
  Available memory per node after get_n_compute_maxes_p1 [GB]:    708.57
  Initialize hartree_potential_storage
  Max. number of atoms included in rho_multipole:           11

  Evaluating partitioned Hartree potential by multipole expansion.
  | Original multipole sum: apparent total charge =   0.124319E-14
  | Sum of charges compensated after spline to logarithmic grids =   0.000000E+00
  | Analytical far-field extrapolation by fixed multipoles:
  | Hartree multipole sum: apparent total charge =   0.000000E+00
  Summing up the Hartree potential.
  | Ewald reciprocal-space coefficients, myid =     0 : cpu      0.000 s, wall      0.000 s.
  | Ewald reciprocal-space coefficients, myid =     1 : cpu      0.000 s, wall      0.000 s.
  | Ewald reciprocal-space coefficients, myid =     2 : cpu      0.000 s, wall      0.000 s.
  | Ewald reciprocal-space coefficients, myid =     3 : cpu      0.000 s, wall      0.000 s.
  | Ewald reciprocal-space coefficients, myid =     4 : cpu      0.000 s, wall      0.000 s.
  | Ewald reciprocal-space coefficients, myid =     5 : cpu      0.000 s, wall      0.000 s.
  | Ewald reciprocal-space coefficients, myid =     6 : cpu      0.000 s, wall      0.000 s.
  | Ewald reciprocal-space coefficients, myid =     7 : cpu      0.000 s, wall      0.000 s.
  | Ewald reciprocal-space coefficients, myid =     8 : cpu      0.000 s, wall      0.000 s.
  | Ewald reciprocal-space coefficients, myid =     9 : cpu      0.000 s, wall      0.000 s.
  | Ewald reciprocal-space coefficients, myid =    10 : cpu      0.000 s, wall      0.000 s.
  | Ewald reciprocal-space coefficients, myid =    11 : cpu      0.000 s, wall      0.000 s.
  | Ewald reciprocal-space coefficients, myid =    12 : cpu      0.000 s, wall      0.000 s.
  | Ewald reciprocal-space coefficients, myid =    13 : cpu      0.000 s, wall      0.000 s.
  | Ewald reciprocal-space coefficients, myid =    14 : cpu      0.000 s, wall      0.000 s.
  | Ewald reciprocal-space coefficients, myid =    15 : cpu      0.000 s, wall      0.000 s.
  | Ewald reciprocal-space coefficients, myid =    16 : cpu      0.000 s, wall      0.000 s.
  | Ewald reciprocal-space coefficients, myid =    17 : cpu      0.000 s, wall      0.000 s.
  | Ewald reciprocal-space coefficients, myid =    18 : cpu      0.000 s, wall      0.000 s.
  | Ewald reciprocal-space coefficients, myid =    19 : cpu      0.000 s, wall      0.000 s.
  | Ewald reciprocal-space coefficients, myid =    20 : cpu      0.000 s, wall      0.000 s.
  | Ewald reciprocal-space coefficients, myid =    21 : cpu      0.000 s, wall      0.000 s.
  | Ewald reciprocal-space coefficients, myid =    22 : cpu      0.000 s, wall      0.000 s.
  | Ewald reciprocal-space coefficients, myid =    23 : cpu      0.000 s, wall      0.000 s.
  | Ewald reciprocal-space coefficients, myid =    24 : cpu      0.000 s, wall      0.000 s.
  | Ewald reciprocal-space coefficients, myid =    25 : cpu      0.000 s, wall      0.000 s.
  | Ewald reciprocal-space coefficients, myid =    26 : cpu      0.000 s, wall      0.000 s.
  | Ewald reciprocal-space coefficients, myid =    27 : cpu      0.000 s, wall      0.000 s.
  | Ewald reciprocal-space coefficients, myid =    28 : cpu      0.000 s, wall      0.000 s.
  | Ewald reciprocal-space coefficients, myid =    29 : cpu      0.000 s, wall      0.000 s.
  | Ewald reciprocal-space coefficients, myid =    30 : cpu      0.000 s, wall      0.000 s.
  | Ewald reciprocal-space coefficients, myid =    31 : cpu      0.000 s, wall      0.000 s.
  Time summed over all CPUs for potential: real work        0.032 s, elapsed        0.041 s
  | RMS charge density error from multipole expansion :   0.243856E-13
  | Average real-space part of the electrostatic potential :     -0.00000000 eV

  Allocating        0.779 MB for KS_eigenvector_complex
  Available memory per node after allocate_matrices [GB]:    708.56
  Available memory per node after init_comm_sparse_local_matrix_scalapack [GB]:    708.56
  Integrating Hamiltonian matrix: batch-based integration.
  Time summed over all CPUs for integration: real work        8.295 s, elapsed       11.501 s => Consider using load balancing!
  Available memory per node after integrate hamiltonian matrix [GB]:    708.42
  Integrating overlap matrix.
  Time summed over all CPUs for integration: real work        3.044 s, elapsed        4.210 s
  Available memory per node after integrate ovlp matrix [GB]:    708.35
  Available memory per node after ASI_callbacks invoke [GB]:    708.35
  Available memory per node after save_overlap_scalapack [GB]:    708.35

  Updating Kohn-Sham eigenvalues and eigenvectors using ELSI and the (modified) LAPACK eigensolver.
  Singularity check in k-point 32, task 0 (analysis for other k-points/tasks may follow below):
  Overlap matrix is not singular
  | Lowest and highest eigenvalues :  0.2840E-02,  0.7525E+01
  Finished singularity check of overlap matrix
  | Time :     0.009 s
  Starting LAPACK eigensolver
  Finished Cholesky decomposition
  | Time :     0.002 s
  Finished transformation to standard eigenproblem
  | Time :     0.004 s
  Finished solving standard eigenproblem
  | Time :     0.011 s
  Finished back-transformation of eigenvectors
  | Time :     0.001 s

  Obtaining occupation numbers and electronic chemical potential using ELSI.
  | Note that, for insulating systems, the printed 'chemical potential' value is not uniquely defined.
  | It can be anywhere in the energy gap, as long as it correctly separates occupied and unoccupied states.
  | In systems with a gap, the physically relevant chemical potential is the VBM or HOMO.

  | Chemical potential (Fermi level):    -5.27650667 eV
  Available memory per node after advance_KS_solution [GB]:    708.46
  Writing Kohn-Sham eigenvalues.

  Spin-up eigenvalues:
  K-point:       1 at    0.000000    0.000000    0.000000 (in units of recip. lattice)

  State    Occupation    Eigenvalue [Ha]    Eigenvalue [eV]
      1       1.00000        -179.969188        -4897.21078
      2       1.00000        -179.969187        -4897.21075
      3       1.00000        -179.965316        -4897.10540
      4       1.00000        -179.965315        -4897.10539
      5       1.00000         -19.738762         -537.11906
      6       1.00000         -19.738761         -537.11901
      7       1.00000         -19.734528         -537.00382
      8       1.00000         -19.734527         -537.00381
      9       1.00000         -19.034836         -517.96423
     10       1.00000         -19.034834         -517.96418
     11       1.00000         -19.034798         -517.96321
     12       1.00000         -19.034678         -517.95995
     13       1.00000         -19.034557         -517.95665
     14       1.00000         -19.002097         -517.07336
     15       1.00000         -18.959813         -515.92275
     16       1.00000         -16.328416         -444.31881
     17       1.00000         -16.328415         -444.31877
     18       1.00000         -16.328107         -444.31039
     19       1.00000         -16.328094         -444.31005
     20       1.00000         -16.328088         -444.30987
     21       1.00000         -16.328078         -444.30962
     22       1.00000         -16.324211         -444.20438
     23       1.00000         -16.324211         -444.20437
     24       1.00000         -16.323952         -444.19732
     25       1.00000         -16.323946         -444.19718
     26       1.00000         -16.323935         -444.19686
     27       1.00000         -16.323929         -444.19670
     28       1.00000          -2.309308          -62.83947
     29       1.00000          -2.308928          -62.82912
     30       1.00000          -2.299318          -62.56764
     31       1.00000          -2.299040          -62.56006
     32       1.00000          -1.449940          -39.45486
     33       1.00000          -1.446147          -39.35165
     34       1.00000          -1.442560          -39.25406
     35       1.00000          -1.441460          -39.22413
     36       1.00000          -1.440679          -39.20287
     37       1.00000          -1.439491          -39.17055
     38       1.00000          -1.433500          -39.00751
     39       1.00000          -1.430203          -38.91781
     40       1.00000          -1.428346          -38.86726
     41       1.00000          -1.427657          -38.84853
     42       1.00000          -1.427128          -38.83414
     43       1.00000          -1.426917          -38.82840
     44       1.00000          -1.054967          -28.70713
     45       1.00000          -1.033597          -28.12560
     46       1.00000          -1.029516          -28.01456
     47       1.00000          -1.021018          -27.78331
     48       1.00000          -1.006293          -27.38262
     49       1.00000          -0.981841          -26.71725
     50       1.00000          -0.933456          -25.40062
     51       1.00000          -0.574203          -15.62485
     52       1.00000          -0.542478          -14.76157
     53       1.00000          -0.534998          -14.55804
     54       1.00000          -0.529763          -14.41560
     55       1.00000          -0.519254          -14.12961
     56       1.00000          -0.515135          -14.01755
     57       1.00000          -0.503230          -13.69358
     58       1.00000          -0.490410          -13.34473
     59       1.00000          -0.486855          -13.24799
     60       1.00000          -0.483701          -13.16218
     61       1.00000          -0.474307          -12.90656
     62       1.00000          -0.469241          -12.76870
     63       1.00000          -0.458439          -12.47476
     64       1.00000          -0.455333          -12.39023
     65       1.00000          -0.440472          -11.98584
     66       1.00000          -0.434101          -11.81248
     67       1.00000          -0.430664          -11.71895
     68       1.00000          -0.413086          -11.24064
     69       1.00000          -0.399705          -10.87653
     70       1.00000          -0.373005          -10.14999
     71       1.00000          -0.352361           -9.58824
     72       1.00000          -0.233628           -6.35735
     73       0.00105          -0.193109           -5.25477
     74       0.00000          -0.189635           -5.16023
     75       0.00000          -0.179307           -4.87919
     76       0.00000          -0.174518           -4.74887
     77       0.00000          -0.158192           -4.30462
     78       0.00000          -0.155812           -4.23987
     79       0.00000          -0.149318           -4.06314
     80       0.00000          -0.146774           -3.99393
     81       0.00000          -0.145503           -3.95933
     82       0.00000          -0.135849           -3.69663
     83       0.00000          -0.134599           -3.66263
     84       0.00000          -0.134110           -3.64931
     85       0.00000          -0.118667           -3.22910
     86       0.00000          -0.113997           -3.10201
     87       0.00000          -0.084872           -2.30949
     88       0.00000          -0.080022           -2.17751
     89       0.00000          -0.078959           -2.14858
     90       0.00000          -0.042448           -1.15508
     91       0.00000          -0.041042           -1.11681
     92       0.00000          -0.039502           -1.07491
     93       0.00000          -0.034579           -0.94094
     94       0.00000          -0.025063           -0.68201
     95       0.00000           0.001499            0.04078
     96       0.00000           0.033282            0.90564
     97       0.00000           0.083935            2.28400
     98       0.00000           0.101847            2.77141
     99       0.00000           0.134450            3.65856
    100       0.00000           0.158042            4.30053
    101       0.00000           0.172464            4.69299
    102       0.00000           0.201900            5.49399
    103       0.00000           0.221991            6.04069
    104       0.00000           0.253748            6.90483
    105       0.00000           0.289248            7.87085
    106       0.00000           0.320483            8.72077
    107       0.00000           0.345690            9.40669
    108       0.00000           0.351234            9.55757
    109       0.00000           0.372407           10.13371
    110       0.00000           0.386758           10.52423
    111       0.00000           0.398003           10.83022
    112       0.00000           0.421003           11.45607
    113       0.00000           0.451165           12.27682
    114       0.00000           0.459460           12.50255
    115       0.00000           0.502166           13.66463

  Spin-down eigenvalues:
  K-point:       1 at    0.000000    0.000000    0.000000 (in units of recip. lattice)

  State    Occupation    Eigenvalue [Ha]    Eigenvalue [eV]
      1       1.00000        -179.969188        -4897.21078
      2       1.00000        -179.969187        -4897.21075
      3       1.00000        -179.965316        -4897.10540
      4       1.00000        -179.965315        -4897.10539
      5       1.00000         -19.738762         -537.11906
      6       1.00000         -19.738761         -537.11901
      7       1.00000         -19.734528         -537.00382
      8       1.00000         -19.734527         -537.00381
      9       1.00000         -19.034836         -517.96423
     10       1.00000         -19.034834         -517.96418
     11       1.00000         -19.034798         -517.96321
     12       1.00000         -19.034678         -517.95995
     13       1.00000         -19.034557         -517.95665
     14       1.00000         -19.002097         -517.07336
     15       1.00000         -18.959813         -515.92275
     16       1.00000         -16.328416         -444.31881
     17       1.00000         -16.328415         -444.31877
     18       1.00000         -16.328107         -444.31039
     19       1.00000         -16.328094         -444.31005
     20       1.00000         -16.328088         -444.30987
     21       1.00000         -16.328078         -444.30962
     22       1.00000         -16.324211         -444.20438
     23       1.00000         -16.324211         -444.20437
     24       1.00000         -16.323952         -444.19732
     25       1.00000         -16.323946         -444.19718
     26       1.00000         -16.323935         -444.19686
     27       1.00000         -16.323929         -444.19670
     28       1.00000          -2.309308          -62.83947
     29       1.00000          -2.308928          -62.82912
     30       1.00000          -2.299318          -62.56764
     31       1.00000          -2.299040          -62.56006
     32       1.00000          -1.449940          -39.45486
     33       1.00000          -1.446147          -39.35165
     34       1.00000          -1.442560          -39.25406
     35       1.00000          -1.441460          -39.22413
     36       1.00000          -1.440679          -39.20287
     37       1.00000          -1.439491          -39.17055
     38       1.00000          -1.433500          -39.00751
     39       1.00000          -1.430203          -38.91781
     40       1.00000          -1.428346          -38.86726
     41       1.00000          -1.427657          -38.84853
     42       1.00000          -1.427128          -38.83414
     43       1.00000          -1.426917          -38.82840
     44       1.00000          -1.054967          -28.70713
     45       1.00000          -1.033597          -28.12560
     46       1.00000          -1.029516          -28.01456
     47       1.00000          -1.021018          -27.78331
     48       1.00000          -1.006293          -27.38262
     49       1.00000          -0.981841          -26.71725
     50       1.00000          -0.933456          -25.40062
     51       1.00000          -0.574203          -15.62485
     52       1.00000          -0.542478          -14.76157
     53       1.00000          -0.534998          -14.55804
     54       1.00000          -0.529763          -14.41560
     55       1.00000          -0.519254          -14.12961
     56       1.00000          -0.515135          -14.01755
     57       1.00000          -0.503230          -13.69358
     58       1.00000          -0.490410          -13.34473
     59       1.00000          -0.486855          -13.24799
     60       1.00000          -0.483701          -13.16218
     61       1.00000          -0.474307          -12.90656
     62       1.00000          -0.469241          -12.76870
     63       1.00000          -0.458439          -12.47476
     64       1.00000          -0.455333          -12.39023
     65       1.00000          -0.440472          -11.98584
     66       1.00000          -0.434101          -11.81248
     67       1.00000          -0.430664          -11.71895
     68       1.00000          -0.413086          -11.24064
     69       1.00000          -0.399705          -10.87653
     70       1.00000          -0.373005          -10.14999
     71       1.00000          -0.352361           -9.58824
     72       1.00000          -0.233628           -6.35735
     73       0.00105          -0.193109           -5.25477
     74       0.00000          -0.189635           -5.16023
     75       0.00000          -0.179307           -4.87919
     76       0.00000          -0.174518           -4.74887
     77       0.00000          -0.158192           -4.30462
     78       0.00000          -0.155812           -4.23987
     79       0.00000          -0.149318           -4.06314
     80       0.00000          -0.146774           -3.99393
     81       0.00000          -0.145503           -3.95933
     82       0.00000          -0.135849           -3.69663
     83       0.00000          -0.134599           -3.66263
     84       0.00000          -0.134110           -3.64931
     85       0.00000          -0.118667           -3.22910
     86       0.00000          -0.113997           -3.10201
     87       0.00000          -0.084872           -2.30949
     88       0.00000          -0.080022           -2.17751
     89       0.00000          -0.078959           -2.14858
     90       0.00000          -0.042448           -1.15508
[...]
     22       1.00000         -16.385206         -445.86415
     23       1.00000         -16.384413         -445.84258
     24       1.00000         -16.383611         -445.82073
     25       1.00000         -16.377010         -445.64113
     26       1.00000         -16.376388         -445.62420
     27       1.00000         -16.375736         -445.60644
     28       1.00000          -2.383067          -64.84656
     29       1.00000          -2.379775          -64.75698
     30       1.00000          -2.331686          -63.44839
     31       1.00000          -2.323650          -63.22974
     32       1.00000          -1.516138          -41.25622
     33       1.00000          -1.514255          -41.20497
     34       1.00000          -1.508969          -41.06113
     35       1.00000          -1.502493          -40.88491
     36       1.00000          -1.502360          -40.88129
     37       1.00000          -1.499395          -40.80061
     38       1.00000          -1.460962          -39.75481
     39       1.00000          -1.456599          -39.63606
     40       1.00000          -1.455551          -39.60756
     41       1.00000          -1.452315          -39.51950
     42       1.00000          -1.450452          -39.46881
     43       1.00000          -1.444867          -39.31684
     44       1.00000          -0.962882          -26.20135
     45       1.00000          -0.938082          -25.52651
     46       1.00000          -0.915668          -24.91660
     47       1.00000          -0.890269          -24.22545
     48       1.00000          -0.850861          -23.15311
     49       1.00000          -0.812961          -22.12181
     50       1.00000          -0.808562          -22.00210
     51       1.00000          -0.487212          -13.25771
     52       1.00000          -0.466004          -12.68060
     53       1.00000          -0.452251          -12.30639
     54       1.00000          -0.448143          -12.19458
     55       1.00000          -0.437075          -11.89343
     56       1.00000          -0.434893          -11.83405
     57       1.00000          -0.414879          -11.28944
     58       1.00000          -0.396713          -10.79511
     59       1.00000          -0.394506          -10.73506
     60       1.00000          -0.386554          -10.51866
     61       1.00000          -0.370608          -10.08475
     62       1.00000          -0.341103           -9.28190
     63       1.00000          -0.328314           -8.93389
     64       1.00000          -0.302329           -8.22680
     65       1.00000          -0.302045           -8.21905
     66       1.00000          -0.292629           -7.96284
     67       1.00000          -0.287183           -7.81464
     68       1.00000          -0.275872           -7.50687
     69       1.00000          -0.274770           -7.47688
     70       1.00000          -0.251058           -6.83164
     71       0.78855          -0.245864           -6.69029
     72       0.02252          -0.242218           -6.59109
     73       0.00000          -0.238129           -6.47983
     74       0.00000          -0.231549           -6.30078
     75       0.00000          -0.216102           -5.88043
     76       0.00000          -0.210166           -5.71892
     77       0.00000          -0.204827           -5.57363
     78       0.00000          -0.198452           -5.40015
     79       0.00000          -0.195952           -5.33211
     80       0.00000          -0.177098           -4.81907
     81       0.00000          -0.171146           -4.65713
     82       0.00000          -0.153046           -4.16461
     83       0.00000          -0.145029           -3.94644
     84       0.00000          -0.135806           -3.69546
     85       0.00000          -0.131466           -3.57736
     86       0.00000          -0.122990           -3.34673
     87       0.00000          -0.114073           -3.10410
     88       0.00000          -0.090477           -2.46200
     89       0.00000          -0.085583           -2.32883
     90       0.00000          -0.060471           -1.64551
     91       0.00000          -0.041019           -1.11619
     92       0.00000          -0.005932           -0.16142
     93       0.00000          -0.004044           -0.11004
     94       0.00000          -0.003646           -0.09922
     95       0.00000           0.006431            0.17501
     96       0.00000           0.097626            2.65654
     97       0.00000           0.124639            3.39159
     98       0.00000           0.154350            4.20008
     99       0.00000           0.164389            4.47325
    100       0.00000           0.204492            5.56452
    101       0.00000           0.234649            6.38511
    102       0.00000           0.262392            7.14004
    103       0.00000           0.266871            7.26193
    104       0.00000           0.296491            8.06793
    105       0.00000           0.314734            8.56436
    106       0.00000           0.348415            9.48087
    107       0.00000           0.373385           10.16031
    108       0.00000           0.396043           10.77689
    109       0.00000           0.411934           11.20930
    110       0.00000           0.430899           11.72537
    111       0.00000           0.440269           11.98034
    112       0.00000           0.450658           12.26303
    113       0.00000           0.456134           12.41204
    114       0.00000           0.474445           12.91032
    115       0.00000           0.482130           13.11942

  Current spin moment of the entire structure :
  | N = N_up - N_down (sum over all k points):         0.00001
  | S (sum over all k points)                :         0.00001

  What follows are estimated values for band gap, HOMO, LUMO, etc.
  | They are estimated on a discrete k-point grid and not necessarily exact.
  | For converged numbers, create a DOS and/or band structure plot on a denser k-grid.

  Highest occupied state (VBM) at     -6.66793761 eV (relative to internal zero)
  | Occupation number:      0.56719173
  | K-point:      29 at    0.500000    0.500000    0.000000 (in units of recip. lattice)
  | Spin channel:        1

  Lowest unoccupied state (CBM) at    -6.65646746 eV (relative to internal zero)
  | Occupation number:      0.43833344
  | K-point:      31 at    0.500000    0.625000    0.500000 (in units of recip. lattice)
  | Spin channel:        1

  ESTIMATED overall HOMO-LUMO gap:      0.01147015 eV between HOMO at k-point 29 and LUMO at k-point 31
  | This appears to be an indirect band gap.
  | Smallest direct gap :      0.02732729 eV for k_point 23 at    0.500000    0.000000    0.000000 (in units of recip. lattice)
  | Direct gap HOMO spin channel :     2
  | Direct gap LUMO spin channel :     1
  However, this system has fractional occupation numbers. Since we use a finite k-point grid,
  this material is metallic within the approximate finite broadening function (occupation_type)
  applied to determine the occupation numbers.

  | Chemical Potential                          :    -6.66195446 eV
  | Note that, for insulating systems, the printed 'chemical potential' value is not uniquely defined.
  | It can be anywhere in the energy gap, as long as it correctly separates occupied and unoccupied states.
  | In systems with a gap, the physically relevant chemical potential is the VBM or HOMO.

  Self-consistency cycle converged.


------------------------------------------------------------
  End self-consistency iteration #   396       :  max(cpu_time)    wall_clock(cpu1)
  | Time for this iteration                     :        1.081 s           1.080 s
  | Charge density update                       :        0.000 s           0.000 s
  | Density mixing                              :        0.444 s           0.444 s
  | Hartree multipole update                    :        0.002 s           0.002 s
  | Hartree multipole summation                 :        0.127 s           0.127 s
  | Integration                                 :        0.420 s           0.420 s
  | Solution of K.-S. eqns.                     :        0.085 s           0.086 s
  | Total energy evaluation                     :        0.000 s           0.001 s

  Partial memory accounting:
  | Current value for overall tracked memory usage:
  |   Minimum:        9.859 MB (on task 21)
  |   Maximum:       10.725 MB (on task  1)
  |   Average:       10.003 MB
  | Peak value for overall tracked memory usage:
  |   Minimum:       19.522 MB (on task 12 after allocating KS_scaled_cmplx)
  |   Maximum:       21.887 MB (on task  2 after allocating KS_scaled_cmplx)
  |   Average:       20.442 MB
  | Largest tracked array allocation so far:
  |   Minimum:        3.784 MB (hamiltonian on task  0)
  |   Maximum:        3.784 MB (hamiltonian on task  0)
  |   Average:        3.784 MB
  Note:  These values currently only include a subset of arrays which are explicitly tracked.
  The "true" memory usage will be greater.
------------------------------------------------------------

  Energy and forces in a compact form:
  | Total energy uncorrected      :         -0.107540520437488E+06 eV
  | Total energy corrected        :         -0.107540533109206E+06 eV  <-- do not rely on this value for anything but (periodic) metals
  | Electronic free energy        :         -0.107540545780924E+06 eV

  ------------------------------------ 
  Start decomposition of the XC Energy 
  ------------------------------------ 
  X and C from original XC functional choice 
  Hartree-Fock Energy :          0.000000000 Ha              0.000000000 eV
  X Energy            :       -222.653135870 Ha          -6058.700090287 eV
  C Energy            :         -5.675337301 Ha           -154.433785472 eV
  XC Energy w/o HF    :       -228.328473171 Ha          -6213.133875759 eV
  Total XC Energy     :       -228.328473171 Ha          -6213.133875759 eV
  ------------------------------------ 
  LDA X and C from self-consistent density 
  X Energy LDA        :       -206.726165506 Ha          -5625.305175783 eV
  C Energy LDA        :        -11.143823214 Ha           -303.238858277 eV
  ------------------------------------ 
  End decomposition of the XC Energy 
  ------------------------------------ 

------------------------------------------------------------

  ------------------------------------------------------------
                   Starting Mulliken Analysis
  ------------------------------------------------------------

  Performing Mulliken charge analysis on all atoms.
  Full analysis will be written to separate file 'Mulliken.out'.
  Summary of the per-atom charge analysis:
  |
  |  atom       electrons          charge             l=0             l=1             l=2             l=3             l=4
  |     1       21.297861        0.702139        6.423907       12.428835        2.384045        0.061074
  |     2       21.339285        0.660715        6.460716       12.427871        2.388961        0.061737
  |     3        8.644864       -0.644864        3.856815        4.774423        0.013627
  |     4        8.553958       -0.553958        3.850972        4.689753        0.013233
  |     5        8.602753       -0.602753        3.847180        4.744601        0.010971
  |     6        8.607840       -0.607840        3.852750        4.744863        0.010226
  |     7       20.853252        1.146748        6.026056       12.489917        2.197138        0.140141
  |     8       20.932542        1.067458        6.045839       12.506037        2.238645        0.142022
  |     9        8.610103       -0.610103        3.851389        4.748445        0.010269
  |    10        8.369352       -0.369352        3.893007        4.464611        0.011733
  |    11        8.188192       -0.188192        3.947555        4.234233        0.006404
  |
  | Total      144.000000       -0.000000
 
  Summary of the per-atom spin analysis:
  |
  |  atom   spin      l=0         l=1         l=2         l=3         l=4
  |     1    0.000011    0.000000    0.000001    0.000010    0.000000
  |     2    0.000001    0.000000   -0.000000    0.000001    0.000000
  |     3   -0.000000   -0.000000   -0.000000    0.000000
  |     4    0.000000    0.000000    0.000000   -0.000000
  |     5   -0.000000   -0.000000   -0.000000    0.000000
  |     6    0.000000    0.000000    0.000000   -0.000000
  |     7   -0.000000   -0.000000    0.000000   -0.000000    0.000000
  |     8    0.000000    0.000000    0.000000    0.000000    0.000000
  |     9    0.000000    0.000000    0.000000   -0.000000
  |    10    0.000000    0.000000    0.000000    0.000000
  |    11   -0.000002   -0.000000   -0.000002   -0.000000
  |
  | Total    0.000010
 
  Writing Mulliken decomposition to disk ...

  Mulliken analysis                                       :  max(cpu_time)    wall_clock(cpu1)
  | Time for Mulliken analysis                            :          0.769               0.770
  | Total time for Mulliken analysis                      :          0.769               0.770
------------------------------------------------------------

------------------------------------------------------------------------------
  Final output of selected total energy values:

  The following output summarizes some interesting total energy values
  at the end of a run (AFTER all relaxation, molecular dynamics, etc.).

  | Total energy of the DFT / Hartree-Fock s.c.f. calculation      :        -107540.520437488 eV
  | Final zero-broadening corrected energy (caution - metals only) :        -107540.533109206 eV
  | For reference only, the value of 1 Hartree used in FHI-aims is :             27.211384500 eV
  | For reference only, the overall average (free atom contribution
  | + realspace contribution) of the electrostatic potential after
  | s.c.f. convergence is                                          :             -5.326379743 eV

  Before relying on these values, please be sure to understand exactly which
  total energy value is referred to by a given number. Different objects may
  all carry the same name 'total energy'. Definitions:

  Total energy of the DFT / Hartree-Fock s.c.f. calculation:
  | Note that this energy does not include ANY quantities calculated after the
  | s.c.f. cycle, in particular not ANY RPA, MP2, etc. many-body perturbation terms.

  Final zero-broadening corrected energy:
  | For metallic systems only, a broadening of the occupation numbers at the Fermi
  | level can be extrapolated back to zero broadening by an electron-gas inspired
  | formula. For all systems that are not real metals, this value can be
  | meaningless and should be avoided.

------------------------------------------------------------------------------
  Methods described in the following list of references were used in this FHI-aims run.
  If you publish the results, please make sure to cite these reference if they apply.
  FHI-aims is an academic code, and for our developers (often, Ph.D. students
  and postdocs), scientific credit in the community is essential.
  Thank you for helping us!

  For any use of FHI-aims, please cite:

    Volker Blum, Ralf Gehrke, Felix Hanke, Paula Havu, Ville Havu,
    Xinguo Ren, Karsten Reuter, and Matthias Scheffler
    'Ab initio molecular simulations with numeric atom-centered orbitals'
    Computer Physics Communications 180, 2175-2196 (2009)
    http://doi.org/10.1016/j.cpc.2009.06.022


  The provided symmetry information was generated with SPGlib:

    Atsushi Togo, Yusuke Seto, Dimitar Pashov
    SPGlib 1.7.3 obtained from http://spglib.sourceforge.net
    Licence: New BSD license
    Copyright (C) 2008 Atsushi Togo


  The ELSI infrastructure was used in your run to solve the Kohn-Sham electronic structure.
  Please check out https://wordpress.elsi-interchange.org to learn more.
  If scalability is important for your project, please acknowledge ELSI by citing:

    V. W-z. Yu, F. Corsetti, A. Garcia, W. P. Huhn, M. Jacquelin, W. Jia,
    B. Lange, L. Lin, J. Lu, W. Mi, A. Seifitokaldani, A. Vazquez-Mayagoitia,
    C. Yang, H. Yang, and V. Blum
    'ELSI: A unified software interface for Kohn-Sham electronic structure solvers'
    Computer Physics Communications 222, 267-285 (2018).
    http://doi.org/10.1016/j.cpc.2017.09.007


  For the real-space grid partitioning and parallelization used in this calculation, please cite:

    Ville Havu, Volker Blum, Paula Havu, and Matthias Scheffler,
    'Efficient O(N) integration for all-electron electronic structure calculation'
    'using numerically tabulated basis functions'
    Journal of Computational Physics 228, 8367-8379 (2009).
    http://doi.org/10.1016/j.jcp.2009.08.008

  Of course, there are many other important community references, e.g., those cited in the
  above references. Our list is limited to references that describe implementations in the
  FHI-aims code. The reason is purely practical (length of this list) - please credit others as well.

   One or more s.c.f. cycles took more than 50 s.c.f. iterations.
   It might be worth adjusting your convergence settings. For example,
   metals need a larger broadening and a smaller "charge_mix_param" value than semiconductors.

------------------------------------------------------------
          Leaving FHI-aims.
          Date     :  20241006, Time     :  221304.644

          Computational steps:
          | Number of self-consistency cycles          :          396
          | Number of SCF (re)initializations          :            1

          Detailed time accounting                     :  max(cpu_time)    wall_clock(cpu1)
          | Total time                                  :      663.881 s         663.905 s
          | Preparation time                            :        0.643 s           0.641 s
          | Boundary condition initalization            :        0.053 s           0.053 s
          | Grid partitioning                           :        0.082 s           0.082 s
          | Preloading free-atom quantities on grid     :        0.187 s           0.188 s
          | Free-atom superposition energy              :        0.017 s           0.017 s
          | Total time for integrations                 :      127.790 s         127.794 s
          | Total time for solution of K.-S. equations  :       33.977 s          33.990 s
          | Total time for density update               :      293.860 s         293.864 s
          | Total time for mixing & preconditioning     :      171.648 s         171.670 s
          | Total time for Hartree multipole update     :        0.677 s           0.662 s
          | Total time for Hartree multipole sum        :       33.616 s          33.622 s
          | Total time for total energy evaluation      :        0.162 s           0.244 s
          | Total time for scaled ZORA corrections      :        0.000 s           0.000 s
          | Total time for Mulliken analysis            :        0.769 s           0.770 s

          Partial memory accounting:
          | Residual value for overall tracked memory usage across tasks:     0.000000 MB (should be 0.000000 MB)
          | Peak values for overall tracked memory usage:
          |   Minimum:       19.522 MB (on task 12 after allocating KS_scaled_cmplx)
          |   Maximum:       21.887 MB (on task  2 after allocating KS_scaled_cmplx)
          |   Average:       20.442 MB
          | Largest tracked array allocation:
          |   Minimum:        3.784 MB (hamiltonian on task  0)
          |   Maximum:        3.784 MB (hamiltonian on task  0)
          |   Average:        3.784 MB
          Note:  These values currently only include a subset of arrays which are explicitly tracked.
          The "true" memory usage will be greater.

          Have a nice day.
------------------------------------------------------------
