------------------------------------------------------------
          Invoking FHI-aims ...

          When using FHI-aims, please cite the following reference:

            Volker Blum, Ralf Gehrke, Felix Hanke, Paula Havu,
            Ville Havu, Xinguo Ren, Karsten Reuter, and Matthias Scheffler,
            'Ab Initio Molecular Simulations with Numeric Atom-Centered Orbitals',
            Computer Physics Communications 180, 2175-2196 (2009)

          In addition, many other developments in FHI-aims are likely important for
          your particular application. If so, please cite them. A partial list of references
          is written at the end of this file. Thank you for giving credit to the authors
          of these developments.

          For general information about FHI-aims please find us at

            https://fhi-aims.org

          Online tutorials can be found at

            https://fhi-aims-club.gitlab.io/tutorials/tutorials-overview/

          For any questions about FHI-aims, please visit our slack channel at

            https://fhi-aims.slack.com

          and our main development and support site at

            https://aims-git.rz-berlin.mpg.de .

          The latter site, in particular, has a wiki to collect information, as well
          as an issue tracker to log discussions, suggest improvements, and report issues
          or bugs. https://aims-git.rz-berlin.mpg.de is also the main development site
          of the project and all new and updated code versions can be obtained there.
          Please send an email to aims-coordinators@fhi-berlin.mpg.de and we will add
          you to these sites. They are for you and everyone is welcome there.

------------------------------------------------------------



  Date     :  20250417, Time     :  122212.108
  Time zero on CPU 1             :   0.622546000000000E+00  s.
  Internal wall clock time zero  :           514124532.108  s.

  FHI-aims created a unique identifier for this run for later identification
  aims_uuid : C6C391EB-9A3F-4808-A8C0-1BAF307D66BE

  Build configuration of the current instance of FHI-aims
  -------------------------------------------------------
  FHI-aims version      : 240605
  Commit number         : b001b2e18
  CMake host system     : Linux-6.5.0-41-generic
  CMake version         : 3.22.1
  Fortran compiler      : /opt/intel/oneapi/mpi/2021.12/bin/mpiifort (IntelLLVM) version 2024.1.0
  Fortran compiler flags: -fc=ifx -O3 -ip -fp-model precise
  C compiler            : /opt/intel/oneapi/mpi/2021.12/bin/mpiicc (IntelLLVM) version 2024.1.0
  C compiler flags      : -cc=icx -O3 -ip -fp-model precise -std=gnu99
  C++ compiler          : /opt/intel/oneapi/mpi/2021.12/bin/mpiicpc (IntelLLVM) version 2024.1.0
  C++ compiler flags    : -cxx=icpx -O3 -ip -fp-model precise -std=c++11
  HIP compiler          :
  HIP compiler flags    :
  HIP GPU arch          :
  Using MPI
  Using ScaLAPACK
  Using LibXC
  Using i-PI
  Using RLSY
  Linking against: /opt/intel/oneapi/mkl/2024.1/lib/intel64/libmkl_intel_lp64.so
                   /opt/intel/oneapi/mkl/2024.1/lib/intel64/libmkl_sequential.so
                   /opt/intel/oneapi/mkl/2024.1/lib/intel64/libmkl_core.so
                   /opt/intel/oneapi/mkl/2024.1/lib/intel64/libmkl_blacs_intelmpi_lp64.so
                   /opt/intel/oneapi/mkl/2024.1/lib/intel64/libmkl_scalapack_lp64.so
                   /opt/intel/oneapi/mkl/2024.1/lib/intel64/libmkl_core.so

  Using       64 parallel tasks.
  Task        0 on host RSL-arvutus reporting.
  Task        1 on host RSL-arvutus reporting.
  Task        2 on host RSL-arvutus reporting.
  Task        3 on host RSL-arvutus reporting.
  Task        4 on host RSL-arvutus reporting.
  Task        5 on host RSL-arvutus reporting.
  Task        6 on host RSL-arvutus reporting.
  Task        7 on host RSL-arvutus reporting.
  Task        8 on host RSL-arvutus reporting.
  Task        9 on host RSL-arvutus reporting.
  Task       10 on host RSL-arvutus reporting.
  Task       11 on host RSL-arvutus reporting.
  Task       12 on host RSL-arvutus reporting.
  Task       13 on host RSL-arvutus reporting.
  Task       14 on host RSL-arvutus reporting.
  Task       15 on host RSL-arvutus reporting.
  Task       16 on host RSL-arvutus reporting.
  Task       17 on host RSL-arvutus reporting.
  Task       18 on host RSL-arvutus reporting.
  Task       19 on host RSL-arvutus reporting.
  Task       20 on host RSL-arvutus reporting.
  Task       21 on host RSL-arvutus reporting.
  Task       22 on host RSL-arvutus reporting.
  Task       23 on host RSL-arvutus reporting.
  Task       24 on host RSL-arvutus reporting.
  Task       25 on host RSL-arvutus reporting.
  Task       26 on host RSL-arvutus reporting.
  Task       27 on host RSL-arvutus reporting.
  Task       28 on host RSL-arvutus reporting.
  Task       29 on host RSL-arvutus reporting.
  Task       30 on host RSL-arvutus reporting.
  Task       31 on host RSL-arvutus reporting.
  Task       32 on host RSL-arvutus reporting.
  Task       33 on host RSL-arvutus reporting.
  Task       34 on host RSL-arvutus reporting.
  Task       35 on host RSL-arvutus reporting.
  Task       36 on host RSL-arvutus reporting.
  Task       37 on host RSL-arvutus reporting.
  Task       38 on host RSL-arvutus reporting.
  Task       39 on host RSL-arvutus reporting.
  Task       40 on host RSL-arvutus reporting.
  Task       41 on host RSL-arvutus reporting.
  Task       42 on host RSL-arvutus reporting.
  Task       43 on host RSL-arvutus reporting.
  Task       44 on host RSL-arvutus reporting.
  Task       45 on host RSL-arvutus reporting.
  Task       46 on host RSL-arvutus reporting.
  Task       47 on host RSL-arvutus reporting.
  Task       48 on host RSL-arvutus reporting.
  Task       49 on host RSL-arvutus reporting.
  Task       50 on host RSL-arvutus reporting.
  Task       51 on host RSL-arvutus reporting.
  Task       52 on host RSL-arvutus reporting.
  Task       53 on host RSL-arvutus reporting.
  Task       54 on host RSL-arvutus reporting.
  Task       55 on host RSL-arvutus reporting.
  Task       56 on host RSL-arvutus reporting.
  Task       57 on host RSL-arvutus reporting.
  Task       58 on host RSL-arvutus reporting.
  Task       59 on host RSL-arvutus reporting.
  Task       60 on host RSL-arvutus reporting.
  Task       61 on host RSL-arvutus reporting.
  Task       62 on host RSL-arvutus reporting.
  Task       63 on host RSL-arvutus reporting.

  Memory overcommitment is allowed on your operating system.

  Obtaining array dimensions for all initial allocations:
  
  -----------------------------------------------------------------------
  Parsing control.in (first pass over file, find array dimensions only).
  The contents of control.in will be repeated verbatim below
  unless switched off by setting 'verbatim_writeout .false.' .
  in the first line of control.in .
  -----------------------------------------------------------------------
  
    xc              pbe
    relativistic    zora scalar 1.0e-12
    k_grid          2 2 1
  
    spin		  none
    output	  atom_proj_dos -50 10 2400 0.1
  
  ################################################################################
  #
  #  FHI-aims code project
  #  VB, Fritz-Haber Institut, 2009
  #
  #  Suggested "light" defaults for Ti atom (to be pasted into control.in file)
  #  Be sure to double-check any results obtained with these settings for post-processing,
  #  e.g., with the "tight" defaults and larger basis sets.
  #
  ################################################################################
    species        Ti
  #     global species definitions
      nucleus             22
      mass                47.867
  #
      l_hartree           4
  #
      cut_pot             3.5          1.5  1.0
      basis_dep_cutoff    1e-4
  #
      radial_base         48 5.0
      radial_multiplier   1
      angular_grids       specified
        division   0.5171   50
        division   0.9824  110
        division   1.2917  194
        division   1.4940  302
  #      division   1.6934  434
  #      division   1.8425  590
  #      division   2.1901  770
  #      division   2.2896  974
  #      division   2.8244 1202
  #      outer_grid  974
        outer_grid  302
  ################################################################################
  #
  #  Definition of "minimal" basis
  #
  ################################################################################
  #     valence basis states
      valence      4  s   2.
      valence      3  p   6.
      valence      3  d   2.
  #     ion occupancy
      ion_occ      4  s   1.
      ion_occ      3  p   6.
      ion_occ      3  d   1.
  ################################################################################
  #
  #  Suggested additional basis functions. For production calculations,
  #  uncomment them one after another (the most important basis functions are
  #  listed first).
  #
  #  Constructed for dimers: 1.6 A, 1.85 A, 2.5 A, 3.25 A, 4.25 A
  #
  ################################################################################
  #  "First tier" - improvements: -396.25 meV to -19.41 meV
       hydro 4 f 8
       hydro 3 d 2.7
       ionic 4 p auto
  #     hydro 5 g 11.6
       ionic 4 s auto
  #  "Second tier" - improvements: -16.30 meV to -2.03 meV
  #     hydro 3 d 4.4
  #     hydro 6 h 16
  #     hydro 4 f 9.4
  #     hydro 4 p 4.5
  #     hydro 1 s 0.5
  #  "Third tier" - improvements: -6.28 meV to -0.37 meV
  #     hydro 4 d 6.4
  #     hydro 4 f 10
  #     hydro 5 g 12
  #     hydro 2 p 1.7
  #     hydro 6 h 16.4
  #     hydro 4 s 3.8
  #  Further basis functions: -0.45 meV and smaller improvements
  #     hydro 3 d 8.8
  #     hydro 5 p 18
  #     hydro 4 f 22.4
  #     hydro 5 f 7.2  # -0.16 meV
  #     hydro 3 d 2.1  # -0.11 meV
  #     hydro 5 g 7.4  # -0.09 meV
  
  
  ################################################################################
  #
  #  FHI-aims code project
  #  VB, Fritz-Haber Institut, 2009
  #
  #  Suggested "light" defaults for O atom (to be pasted into control.in file)
  #  Be sure to double-check any results obtained with these settings for post-processing,
  #  e.g., with the "tight" defaults and larger basis sets.
  #
  ################################################################################
    species        O
  #     global species definitions
      nucleus             8
      mass                15.9994
  #
      l_hartree           4
  #
      cut_pot             3.5  1.5  1.0
      basis_dep_cutoff    1e-4
  #
      radial_base         36 5.0
      radial_multiplier   1
       angular_grids specified
        division   0.2659   50
        division   0.4451  110
        division   0.6052  194
        division   0.7543  302
  #      division   0.8014  434
  #      division   0.8507  590
  #      division   0.8762  770
  #      division   0.9023  974
  #      division   1.2339 1202
  #      outer_grid 974
        outer_grid 302
  ################################################################################
  #
  #  Definition of "minimal" basis
  #
  ################################################################################
  #     valence basis states
      valence      2  s   2.
      valence      2  p   4.
  #     ion occupancy
      ion_occ      2  s   1.
      ion_occ      2  p   3.
  ################################################################################
  #
  #  Suggested additional basis functions. For production calculations,
  #  uncomment them one after another (the most important basis functions are
  #  listed first).
  #
  #  Constructed for dimers: 1.0 A, 1.208 A, 1.5 A, 2.0 A, 3.0 A
  #
  ################################################################################
  #  "First tier" - improvements: -699.05 meV to -159.38 meV
       hydro 2 p 1.8
       hydro 3 d 7.6
       hydro 3 s 6.4
  #  "Second tier" - improvements: -49.91 meV to -5.39 meV
  #     hydro 4 f 11.6
  #     hydro 3 p 6.2
  #     hydro 3 d 5.6
  #     hydro 5 g 17.6
  #     hydro 1 s 0.75
  #  "Third tier" - improvements: -2.83 meV to -0.50 meV
  #     ionic 2 p auto
  #     hydro 4 f 10.8
  #     hydro 4 d 4.7
  #     hydro 2 s 6.8
  #  "Fourth tier" - improvements: -0.40 meV to -0.12 meV
  #     hydro 3 p 5
  #     hydro 3 s 3.3
  #     hydro 5 g 15.6
  #     hydro 4 f 17.6
  #     hydro 4 d 14
  # Further basis functions - -0.08 meV and below
  #     hydro 3 s 2.1
  #     hydro 4 d 11.6
  #     hydro 3 p 16
  #     hydro 2 s 17.2
  
  ################################################################################
  #
  #  "Core" basis functions and numerical settings for O atom.
  #  Based on “tight” defaults (V. Blum, 2009).
  #
  ################################################################################
    species        O1
  #     global species definitions
      nucleus             8.
      mass                15.9994
  #
      l_hartree           6
  #
      cut_pot             4.0  2.0  1.0
      basis_dep_cutoff    1e-4
  #
      radial_base         36 7.0
      radial_multiplier   2
       angular_grids specified
        division   0.1817   50
        division   0.3417  110
        division   0.4949  194
        division   0.6251  302
        division   0.8014  434
  #      division   0.8507  590
  #      division   0.8762  770
  #      division   0.9023  974
  #      division   1.2339 1202
  #      outer_grid 974
        outer_grid  434
  ################################################################################
  #
  #  Definition of "minimal" basis
  #
  ################################################################################
  #     valence basis states
      valence      2  s   2.
      valence      2  p   4.
  #     ion occupancy
      ion_occ      2  s   1.
      ion_occ      2  p   3.
  ################################################################################
  #
  #  Suggested additional basis functions. For production calculations,
  #  uncomment them one after another (the most important basis functions are
  #  listed first).
  #
  #  Constructed for dimers: 1.0 A, 1.208 A, 1.5 A, 2.0 A, 3.0 A
  #
  ################################################################################
  #  "First tier" - improvements: -699.05 meV to -159.38 meV
       hydro 2 p 1.8
       hydro 3 d 7.6
       hydro 3 s 6.4
  #  "Second tier" - improvements: -49.91 meV to -5.39 meV
       hydro 4 f 11.6
       hydro 3 p 6.2
       hydro 3 d 5.6
       hydro 5 g 17.6
       hydro 1 s 0.75
  #  "Third tier" - improvements: -2.83 meV to -0.50 meV
       ionic 2 p auto
       hydro 4 f 10.8
       hydro 4 d 4.7
       hydro 2 s 6.8
  #  "Fourth tier" - improvements: -0.40 meV to -0.12 meV
  #     hydro 3 p 5
  #     hydro 3 s 3.3
  #     hydro 5 g 15.6
  #     hydro 4 f 17.6
  #     hydro 4 d 14
  # Further basis functions - -0.08 meV and below
  #     hydro 3 s 2.1
  #     hydro 4 d 11.6
  #     hydro 3 p 16
  #     hydro 2 s 17.2
  
  # Additional basis functions for atom with a core hole
       hydro 1 s 12.0
       hydro 1 s 10.0
       hydro 1 s 6.0
       hydro 2 s 10.0
       hydro 2 p 8.0
       hydro 2 p 6.0
       hydro 3 d 8.0
  
  -----------------------------------------------------------------------
  Completed first pass over input file control.in .
  -----------------------------------------------------------------------
  
  
  -----------------------------------------------------------------------
  Parsing geometry.in (first pass over file, find array dimensions only).
  The contents of geometry.in will be repeated verbatim below
  unless switched off by setting 'verbatim_writeout .false.' .
  in the first line of geometry.in .
  -----------------------------------------------------------------------
  
  lattice_vector 26.264506 0.000000 0.000000
  lattice_vector 0.000000 23.783062 0.000000
  lattice_vector 0.000000 0.000000 87.542649
  
  atom_frac 0.249998 0.000000 0.365610 O
  atom_frac 0.076389 0.062500 0.380194 O
  atom_frac 0.124999 0.000000 0.380195 Ti
  atom_frac 0.249999 0.062500 0.380195 Ti
  atom_frac 0.173610 0.062500 0.380195 O
  atom_frac 0.000000 0.000000 0.394779 O
  atom_frac 0.124998 0.000000 0.403114 O
  atom_frac 0.201388 0.062500 0.417699 O
  atom_frac 0.249999 0.000000 0.417699 Ti
  atom_frac 0.124999 0.062500 0.417699 Ti
  atom_frac 0.048609 0.062500 0.417699 O
  atom_frac 0.125000 0.000000 0.432283 O
  atom_frac 0.249997 0.000000 0.440619 O
  atom_frac 0.076388 0.062500 0.455203 O
  atom_frac 0.124998 0.000000 0.455203 Ti
  atom_frac 0.249998 0.062500 0.455203 Ti
  atom_frac 0.173608 0.062500 0.455204 O
  atom_frac 0.249999 0.000000 0.469788 O
  atom_frac 0.124996 0.000000 0.478123 O
  atom_frac 0.201387 0.062500 0.492707 O
  atom_frac 0.249997 0.000000 0.492708 Ti
  atom_frac 0.124997 0.062500 0.492708 Ti
  atom_frac 0.048608 0.062500 0.492708 O
  atom_frac 0.124998 0.000000 0.507292 O
  atom_frac 0.249996 0.000000 0.515628 O
  atom_frac 0.076386 0.062500 0.530212 O
  atom_frac 0.124997 0.000000 0.530212 Ti
  atom_frac 0.249997 0.062500 0.530212 Ti
  atom_frac 0.173607 0.062500 0.530212 O
  atom_frac 0.249998 0.000000 0.544797 O
  atom_frac 0.124995 0.000000 0.553132 O
  atom_frac 0.201386 0.062500 0.567716 O
  atom_frac 0.249996 0.000000 0.567717 Ti
  atom_frac 0.124996 0.062500 0.567717 Ti
  atom_frac 0.048606 0.062500 0.567717 O
  atom_frac 0.124997 0.000000 0.582301 O
  atom_frac 0.249994 0.000000 0.590636 O
  atom_frac 0.076385 0.062500 0.605221 O
  atom_frac 0.124995 0.000000 0.605221 Ti
  atom_frac 0.249995 0.062500 0.605221 Ti
  atom_frac 0.173606 0.062500 0.605221 O
  atom_frac 0.249996 0.000000 0.619805 O
  atom_frac 0.124994 0.000000 0.628141 O
  atom_frac 0.201384 0.062500 0.642725 O
  atom_frac 0.249995 0.000000 0.642725 Ti
  atom_frac 0.124995 0.062500 0.642725 Ti
  atom_frac 0.048605 0.062500 0.642726 O
  atom_frac 0.124995 0.000000 0.657310 O
  atom_frac 0.249998 0.125000 0.365610 O
  atom_frac 0.076389 0.187500 0.380194 O
  atom_frac 0.124999 0.125000 0.380195 Ti
  atom_frac 0.249999 0.187500 0.380195 Ti
  atom_frac 0.173610 0.187500 0.380195 O
  atom_frac 0.000000 0.125000 0.394779 O
  atom_frac 0.124998 0.125000 0.403114 O
  atom_frac 0.201388 0.187500 0.417699 O
  atom_frac 0.249999 0.125000 0.417699 Ti
  atom_frac 0.124999 0.187500 0.417699 Ti
  atom_frac 0.048609 0.187500 0.417699 O
  atom_frac 0.125000 0.125000 0.432283 O
  atom_frac 0.249997 0.125000 0.440619 O
  atom_frac 0.076388 0.187500 0.455203 O
  atom_frac 0.124998 0.125000 0.455203 Ti
  atom_frac 0.249998 0.187500 0.455203 Ti
  atom_frac 0.173608 0.187500 0.455204 O
  atom_frac 0.249999 0.125000 0.469788 O
  atom_frac 0.124996 0.125000 0.478123 O
  atom_frac 0.201387 0.187500 0.492707 O
  atom_frac 0.249997 0.125000 0.492708 Ti
  atom_frac 0.124997 0.187500 0.492708 Ti
  atom_frac 0.048608 0.187500 0.492708 O
  atom_frac 0.124998 0.125000 0.507292 O
  atom_frac 0.249996 0.125000 0.515628 O
  atom_frac 0.076386 0.187500 0.530212 O
  atom_frac 0.124997 0.125000 0.530212 Ti
  atom_frac 0.249997 0.187500 0.530212 Ti
  atom_frac 0.173607 0.187500 0.530212 O
  atom_frac 0.249998 0.125000 0.544797 O
  atom_frac 0.124995 0.125000 0.553132 O
  atom_frac 0.201386 0.187500 0.567716 O
  atom_frac 0.249996 0.125000 0.567717 Ti
  atom_frac 0.124996 0.187500 0.567717 Ti
  atom_frac 0.048606 0.187500 0.567717 O
  atom_frac 0.124997 0.125000 0.582301 O
  atom_frac 0.249994 0.125000 0.590636 O
  atom_frac 0.076385 0.187500 0.605221 O
  atom_frac 0.124995 0.125000 0.605221 Ti
  atom_frac 0.249995 0.187500 0.605221 Ti
  atom_frac 0.173606 0.187500 0.605221 O
  atom_frac 0.249996 0.125000 0.619805 O
  atom_frac 0.124994 0.125000 0.628141 O
  atom_frac 0.201384 0.187500 0.642725 O
  atom_frac 0.249995 0.125000 0.642725 Ti
  atom_frac 0.124995 0.187500 0.642725 Ti
  atom_frac 0.048605 0.187500 0.642726 O
  atom_frac 0.124995 0.125000 0.657310 O
  atom_frac 0.249998 0.250000 0.365610 O
  atom_frac 0.076389 0.312500 0.380194 O
  atom_frac 0.124999 0.250000 0.380195 Ti
  atom_frac 0.249999 0.312500 0.380195 Ti
  atom_frac 0.173610 0.312500 0.380195 O
  atom_frac 0.000000 0.250000 0.394779 O
  atom_frac 0.124998 0.250000 0.403114 O
  atom_frac 0.201388 0.312500 0.417699 O
  atom_frac 0.249999 0.250000 0.417699 Ti
  atom_frac 0.124999 0.312500 0.417699 Ti
  atom_frac 0.048609 0.312500 0.417699 O
  atom_frac 0.125000 0.250000 0.432283 O
  atom_frac 0.249997 0.250000 0.440619 O
  atom_frac 0.076388 0.312500 0.455203 O
  atom_frac 0.124998 0.250000 0.455203 Ti
  atom_frac 0.249998 0.312500 0.455203 Ti
  atom_frac 0.173608 0.312500 0.455204 O
  atom_frac 0.249999 0.250000 0.469788 O
  atom_frac 0.124996 0.250000 0.478123 O
  atom_frac 0.201387 0.312500 0.492707 O
  atom_frac 0.249997 0.250000 0.492708 Ti
  atom_frac 0.124997 0.312500 0.492708 Ti
  atom_frac 0.048608 0.312500 0.492708 O
  atom_frac 0.124998 0.250000 0.507292 O
  atom_frac 0.249996 0.250000 0.515628 O
  atom_frac 0.076386 0.312500 0.530212 O
  atom_frac 0.124997 0.250000 0.530212 Ti
  atom_frac 0.249997 0.312500 0.530212 Ti
  atom_frac 0.173607 0.312500 0.530212 O
  atom_frac 0.249998 0.250000 0.544797 O
  atom_frac 0.124995 0.250000 0.553132 O
  atom_frac 0.201386 0.312500 0.567716 O
  atom_frac 0.249996 0.250000 0.567717 Ti
  atom_frac 0.124996 0.312500 0.567717 Ti
  atom_frac 0.048606 0.312500 0.567717 O
  atom_frac 0.124997 0.250000 0.582301 O
  atom_frac 0.249994 0.250000 0.590636 O
  atom_frac 0.076385 0.312500 0.605221 O
  atom_frac 0.124995 0.250000 0.605221 Ti
  atom_frac 0.249995 0.312500 0.605221 Ti
  atom_frac 0.173606 0.312500 0.605221 O
  atom_frac 0.249996 0.250000 0.619805 O
  atom_frac 0.124994 0.250000 0.628141 O
  atom_frac 0.201384 0.312500 0.642725 O
  atom_frac 0.249995 0.250000 0.642725 Ti
  atom_frac 0.124995 0.312500 0.642725 Ti
  atom_frac 0.048605 0.312500 0.642726 O
  atom_frac 0.124995 0.250000 0.657310 O
  atom_frac 0.249998 0.375000 0.365610 O
  atom_frac 0.076389 0.437500 0.380194 O
  atom_frac 0.124999 0.375000 0.380195 Ti
  atom_frac 0.249999 0.437500 0.380195 Ti
  atom_frac 0.173610 0.437500 0.380195 O
  atom_frac 0.000000 0.375000 0.394779 O
  atom_frac 0.124998 0.375000 0.403114 O
  atom_frac 0.201388 0.437500 0.417699 O
  atom_frac 0.249999 0.375000 0.417699 Ti
  atom_frac 0.124999 0.437500 0.417699 Ti
  atom_frac 0.048609 0.437500 0.417699 O
  atom_frac 0.125000 0.375000 0.432283 O
  atom_frac 0.249997 0.375000 0.440619 O
  atom_frac 0.076388 0.437500 0.455203 O
  atom_frac 0.124998 0.375000 0.455203 Ti
  atom_frac 0.249998 0.437500 0.455203 Ti
  atom_frac 0.173608 0.437500 0.455204 O
  atom_frac 0.249999 0.375000 0.469788 O
  atom_frac 0.124996 0.375000 0.478123 O
  atom_frac 0.201387 0.437500 0.492707 O
  atom_frac 0.249997 0.375000 0.492708 Ti
  atom_frac 0.124997 0.437500 0.492708 Ti
  atom_frac 0.048608 0.437500 0.492708 O
  atom_frac 0.124998 0.375000 0.507292 O
  atom_frac 0.249996 0.375000 0.515628 O
  atom_frac 0.076386 0.437500 0.530212 O
  atom_frac 0.124997 0.375000 0.530212 Ti
  atom_frac 0.249997 0.437500 0.530212 Ti
  atom_frac 0.173607 0.437500 0.530212 O
  atom_frac 0.249998 0.375000 0.544797 O
  atom_frac 0.124995 0.375000 0.553132 O
  atom_frac 0.201386 0.437500 0.567716 O
  atom_frac 0.249996 0.375000 0.567717 Ti
  atom_frac 0.124996 0.437500 0.567717 Ti
  atom_frac 0.048606 0.437500 0.567717 O
  atom_frac 0.124997 0.375000 0.582301 O
  atom_frac 0.249994 0.375000 0.590636 O
  atom_frac 0.076385 0.437500 0.605221 O
  atom_frac 0.124995 0.375000 0.605221 Ti
  atom_frac 0.249995 0.437500 0.605221 Ti
  atom_frac 0.173606 0.437500 0.605221 O
  atom_frac 0.249996 0.375000 0.619805 O
  atom_frac 0.124994 0.375000 0.628141 O
  atom_frac 0.201384 0.437500 0.642725 O
  atom_frac 0.249995 0.375000 0.642725 Ti
  atom_frac 0.124995 0.437500 0.642725 Ti
  atom_frac 0.048605 0.437500 0.642726 O
  atom_frac 0.124995 0.375000 0.657310 O
  atom_frac 0.499998 0.000000 0.365610 O
  atom_frac 0.326389 0.062500 0.380194 O
  atom_frac 0.374999 0.000000 0.380195 Ti
  atom_frac 0.499999 0.062500 0.380195 Ti
  atom_frac 0.423610 0.062500 0.380195 O
  atom_frac 0.250000 0.000000 0.394779 O
  atom_frac 0.374998 0.000000 0.403114 O
  atom_frac 0.451388 0.062500 0.417699 O
  atom_frac 0.499999 0.000000 0.417699 Ti
  atom_frac 0.374999 0.062500 0.417699 Ti
  atom_frac 0.298609 0.062500 0.417699 O
  atom_frac 0.375000 0.000000 0.432283 O
  atom_frac 0.499997 0.000000 0.440619 O
  atom_frac 0.326388 0.062500 0.455203 O
  atom_frac 0.374998 0.000000 0.455203 Ti
  atom_frac 0.499998 0.062500 0.455203 Ti
  atom_frac 0.423608 0.062500 0.455204 O
  atom_frac 0.499999 0.000000 0.469788 O
  atom_frac 0.374996 0.000000 0.478123 O
  atom_frac 0.451387 0.062500 0.492707 O
  atom_frac 0.499997 0.000000 0.492708 Ti
  atom_frac 0.374997 0.062500 0.492708 Ti
  atom_frac 0.298608 0.062500 0.492708 O
  atom_frac 0.374998 0.000000 0.507292 O
  atom_frac 0.499996 0.000000 0.515628 O
  atom_frac 0.326386 0.062500 0.530212 O
  atom_frac 0.374997 0.000000 0.530212 Ti
  atom_frac 0.499997 0.062500 0.530212 Ti
  atom_frac 0.423607 0.062500 0.530212 O
  atom_frac 0.499998 0.000000 0.544797 O
  atom_frac 0.374995 0.000000 0.553132 O
  atom_frac 0.451386 0.062500 0.567716 O
  atom_frac 0.499996 0.000000 0.567717 Ti
  atom_frac 0.374996 0.062500 0.567717 Ti
  atom_frac 0.298606 0.062500 0.567717 O
  atom_frac 0.374997 0.000000 0.582301 O
  atom_frac 0.499994 0.000000 0.590636 O
  atom_frac 0.326385 0.062500 0.605221 O
  atom_frac 0.374995 0.000000 0.605221 Ti
  atom_frac 0.499995 0.062500 0.605221 Ti
  atom_frac 0.423606 0.062500 0.605221 O
  atom_frac 0.499996 0.000000 0.619805 O
  atom_frac 0.374994 0.000000 0.628141 O
  atom_frac 0.451384 0.062500 0.642725 O
  atom_frac 0.499995 0.000000 0.642725 Ti
  atom_frac 0.374995 0.062500 0.642725 Ti
  atom_frac 0.298605 0.062500 0.642726 O
  atom_frac 0.374995 0.000000 0.657310 O
  atom_frac 0.499998 0.125000 0.365610 O
  atom_frac 0.326389 0.187500 0.380194 O
  atom_frac 0.374999 0.125000 0.380195 Ti
  atom_frac 0.499999 0.187500 0.380195 Ti
  atom_frac 0.423610 0.187500 0.380195 O
  atom_frac 0.250000 0.125000 0.394779 O
  atom_frac 0.374998 0.125000 0.403114 O
  atom_frac 0.451388 0.187500 0.417699 O
  atom_frac 0.499999 0.125000 0.417699 Ti
  atom_frac 0.374999 0.187500 0.417699 Ti
  atom_frac 0.298609 0.187500 0.417699 O
  atom_frac 0.375000 0.125000 0.432283 O
  atom_frac 0.499997 0.125000 0.440619 O
  atom_frac 0.326388 0.187500 0.455203 O
  atom_frac 0.374998 0.125000 0.455203 Ti
  atom_frac 0.499998 0.187500 0.455203 Ti
  atom_frac 0.423608 0.187500 0.455204 O
  atom_frac 0.499999 0.125000 0.469788 O
  atom_frac 0.374996 0.125000 0.478123 O
  atom_frac 0.451387 0.187500 0.492707 O
  atom_frac 0.499997 0.125000 0.492708 Ti
  atom_frac 0.374997 0.187500 0.492708 Ti
  atom_frac 0.298608 0.187500 0.492708 O
  atom_frac 0.374998 0.125000 0.507292 O
  atom_frac 0.499996 0.125000 0.515628 O
  atom_frac 0.326386 0.187500 0.530212 O
  atom_frac 0.374997 0.125000 0.530212 Ti
  atom_frac 0.499997 0.187500 0.530212 Ti
  atom_frac 0.423607 0.187500 0.530212 O
  atom_frac 0.499998 0.125000 0.544797 O
  atom_frac 0.374995 0.125000 0.553132 O
  atom_frac 0.451386 0.187500 0.567716 O
  atom_frac 0.499996 0.125000 0.567717 Ti
  atom_frac 0.374996 0.187500 0.567717 Ti
  atom_frac 0.298606 0.187500 0.567717 O
  atom_frac 0.374997 0.125000 0.582301 O
  atom_frac 0.499994 0.125000 0.590636 O
  atom_frac 0.326385 0.187500 0.605221 O
  atom_frac 0.374995 0.125000 0.605221 Ti
  atom_frac 0.499995 0.187500 0.605221 Ti
  atom_frac 0.423606 0.187500 0.605221 O
  atom_frac 0.499996 0.125000 0.619805 O
  atom_frac 0.374994 0.125000 0.628141 O
  atom_frac 0.451384 0.187500 0.642725 O
  atom_frac 0.499995 0.125000 0.642725 Ti
  atom_frac 0.374995 0.187500 0.642725 Ti
  atom_frac 0.298605 0.187500 0.642726 O
  atom_frac 0.374995 0.125000 0.657310 O
  atom_frac 0.499998 0.250000 0.365610 O
  atom_frac 0.326389 0.312500 0.380194 O
  atom_frac 0.374999 0.250000 0.380195 Ti
  atom_frac 0.499999 0.312500 0.380195 Ti
  atom_frac 0.423610 0.312500 0.380195 O
  atom_frac 0.250000 0.250000 0.394779 O
  atom_frac 0.374998 0.250000 0.403114 O
  atom_frac 0.451388 0.312500 0.417699 O
  atom_frac 0.499999 0.250000 0.417699 Ti
  atom_frac 0.374999 0.312500 0.417699 Ti
  atom_frac 0.298609 0.312500 0.417699 O
  atom_frac 0.375000 0.250000 0.432283 O
  atom_frac 0.499997 0.250000 0.440619 O
  atom_frac 0.326388 0.312500 0.455203 O
  atom_frac 0.374998 0.250000 0.455203 Ti
  atom_frac 0.499998 0.312500 0.455203 Ti
  atom_frac 0.423608 0.312500 0.455204 O
  atom_frac 0.499999 0.250000 0.469788 O
  atom_frac 0.374996 0.250000 0.478123 O
  atom_frac 0.451387 0.312500 0.492707 O
  atom_frac 0.499997 0.250000 0.492708 Ti
  atom_frac 0.374997 0.312500 0.492708 Ti
  atom_frac 0.298608 0.312500 0.492708 O
  atom_frac 0.374998 0.250000 0.507292 O
  atom_frac 0.499996 0.250000 0.515628 O
  atom_frac 0.326386 0.312500 0.530212 O
  atom_frac 0.374997 0.250000 0.530212 Ti
  atom_frac 0.499997 0.312500 0.530212 Ti
  atom_frac 0.423607 0.312500 0.530212 O
  atom_frac 0.499998 0.250000 0.544797 O
  atom_frac 0.374995 0.250000 0.553132 O
  atom_frac 0.451386 0.312500 0.567716 O
  atom_frac 0.499996 0.250000 0.567717 Ti
  atom_frac 0.374996 0.312500 0.567717 Ti
  atom_frac 0.298606 0.312500 0.567717 O
  atom_frac 0.374997 0.250000 0.582301 O
  atom_frac 0.499994 0.250000 0.590636 O
  atom_frac 0.326385 0.312500 0.605221 O
  atom_frac 0.374995 0.250000 0.605221 Ti
  atom_frac 0.499995 0.312500 0.605221 Ti
  atom_frac 0.423606 0.312500 0.605221 O
  atom_frac 0.499996 0.250000 0.619805 O
  atom_frac 0.374994 0.250000 0.628141 O
  atom_frac 0.451384 0.312500 0.642725 O
  atom_frac 0.499995 0.250000 0.642725 Ti
  atom_frac 0.374995 0.312500 0.642725 Ti
  atom_frac 0.298605 0.312500 0.642726 O
  atom_frac 0.374995 0.250000 0.657310 O
  atom_frac 0.499998 0.375000 0.365610 O
  atom_frac 0.326389 0.437500 0.380194 O
  atom_frac 0.374999 0.375000 0.380195 Ti
  atom_frac 0.499999 0.437500 0.380195 Ti
  atom_frac 0.423610 0.437500 0.380195 O
  atom_frac 0.250000 0.375000 0.394779 O
  atom_frac 0.374998 0.375000 0.403114 O
  atom_frac 0.451388 0.437500 0.417699 O
  atom_frac 0.499999 0.375000 0.417699 Ti
  atom_frac 0.374999 0.437500 0.417699 Ti
  atom_frac 0.298609 0.437500 0.417699 O
  atom_frac 0.375000 0.375000 0.432283 O
  atom_frac 0.499997 0.375000 0.440619 O
  atom_frac 0.326388 0.437500 0.455203 O
  atom_frac 0.374998 0.375000 0.455203 Ti
  atom_frac 0.499998 0.437500 0.455203 Ti
  atom_frac 0.423608 0.437500 0.455204 O
  atom_frac 0.499999 0.375000 0.469788 O
  atom_frac 0.374996 0.375000 0.478123 O
  atom_frac 0.451387 0.437500 0.492707 O
  atom_frac 0.499997 0.375000 0.492708 Ti
  atom_frac 0.374997 0.437500 0.492708 Ti
  atom_frac 0.298608 0.437500 0.492708 O
  atom_frac 0.374998 0.375000 0.507292 O
  atom_frac 0.499996 0.375000 0.515628 O
  atom_frac 0.326386 0.437500 0.530212 O
  atom_frac 0.374997 0.375000 0.530212 Ti
  atom_frac 0.499997 0.437500 0.530212 Ti
  atom_frac 0.423607 0.437500 0.530212 O
  atom_frac 0.499998 0.375000 0.544797 O
  atom_frac 0.374995 0.375000 0.553132 O
  atom_frac 0.451386 0.437500 0.567716 O
  atom_frac 0.499996 0.375000 0.567717 Ti
  atom_frac 0.374996 0.437500 0.567717 Ti
  atom_frac 0.298606 0.437500 0.567717 O
  atom_frac 0.374997 0.375000 0.582301 O
  atom_frac 0.499994 0.375000 0.590636 O
  atom_frac 0.326385 0.437500 0.605221 O
  atom_frac 0.374995 0.375000 0.605221 Ti
  atom_frac 0.499995 0.437500 0.605221 Ti
  atom_frac 0.423606 0.437500 0.605221 O
  atom_frac 0.499996 0.375000 0.619805 O
  atom_frac 0.374994 0.375000 0.628141 O
  atom_frac 0.451384 0.437500 0.642725 O
  atom_frac 0.499995 0.375000 0.642725 Ti
  atom_frac 0.374995 0.437500 0.642725 Ti
  atom_frac 0.298605 0.437500 0.642726 O
  atom_frac 0.374995 0.375000 0.657310 O
  atom_frac 0.749998 0.000000 0.365610 O
  atom_frac 0.576389 0.062500 0.380194 O
  atom_frac 0.624999 0.000000 0.380195 Ti
  atom_frac 0.749999 0.062500 0.380195 Ti
  atom_frac 0.673610 0.062500 0.380195 O
  atom_frac 0.500000 0.000000 0.394779 O
  atom_frac 0.624998 0.000000 0.403114 O
  atom_frac 0.701388 0.062500 0.417699 O
  atom_frac 0.749999 0.000000 0.417699 Ti
  atom_frac 0.624999 0.062500 0.417699 Ti
  atom_frac 0.548609 0.062500 0.417699 O
  atom_frac 0.625000 0.000000 0.432283 O
  atom_frac 0.749997 0.000000 0.440619 O
  atom_frac 0.576388 0.062500 0.455203 O
  atom_frac 0.624998 0.000000 0.455203 Ti
  atom_frac 0.749998 0.062500 0.455203 Ti
  atom_frac 0.673608 0.062500 0.455204 O
  atom_frac 0.749999 0.000000 0.469788 O
  atom_frac 0.624996 0.000000 0.478123 O
  atom_frac 0.701387 0.062500 0.492707 O
  atom_frac 0.749997 0.000000 0.492708 Ti
  atom_frac 0.624997 0.062500 0.492708 Ti
  atom_frac 0.548608 0.062500 0.492708 O
  atom_frac 0.624998 0.000000 0.507292 O
  atom_frac 0.749996 0.000000 0.515628 O
  atom_frac 0.576386 0.062500 0.530212 O
  atom_frac 0.624997 0.000000 0.530212 Ti
  atom_frac 0.749997 0.062500 0.530212 Ti
  atom_frac 0.673607 0.062500 0.530212 O
  atom_frac 0.749998 0.000000 0.544797 O
  atom_frac 0.624995 0.000000 0.553132 O
  atom_frac 0.701386 0.062500 0.567716 O
  atom_frac 0.749996 0.000000 0.567717 Ti
  atom_frac 0.624996 0.062500 0.567717 Ti
  atom_frac 0.548606 0.062500 0.567717 O
  atom_frac 0.624997 0.000000 0.582301 O
  atom_frac 0.749994 0.000000 0.590636 O
  atom_frac 0.576385 0.062500 0.605221 O
  atom_frac 0.624995 0.000000 0.605221 Ti
  atom_frac 0.749995 0.062500 0.605221 Ti
  atom_frac 0.673606 0.062500 0.605221 O
  atom_frac 0.749996 0.000000 0.619805 O
  atom_frac 0.624994 0.000000 0.628141 O
  atom_frac 0.701384 0.062500 0.642725 O
  atom_frac 0.749995 0.000000 0.642725 Ti
  atom_frac 0.624995 0.062500 0.642725 Ti
  atom_frac 0.548605 0.062500 0.642726 O
  atom_frac 0.624995 0.000000 0.657310 O
  atom_frac 0.749998 0.125000 0.365610 O
  atom_frac 0.576389 0.187500 0.380194 O
  atom_frac 0.624999 0.125000 0.380195 Ti
  atom_frac 0.749999 0.187500 0.380195 Ti
  atom_frac 0.673610 0.187500 0.380195 O
  atom_frac 0.500000 0.125000 0.394779 O
  atom_frac 0.624998 0.125000 0.403114 O
  atom_frac 0.701388 0.187500 0.417699 O
  atom_frac 0.749999 0.125000 0.417699 Ti
  atom_frac 0.624999 0.187500 0.417699 Ti
  atom_frac 0.548609 0.187500 0.417699 O
  atom_frac 0.625000 0.125000 0.432283 O
  atom_frac 0.749997 0.125000 0.440619 O
  atom_frac 0.576388 0.187500 0.455203 O
  atom_frac 0.624998 0.125000 0.455203 Ti
  atom_frac 0.749998 0.187500 0.455203 Ti
  atom_frac 0.673608 0.187500 0.455204 O
  atom_frac 0.749999 0.125000 0.469788 O
  atom_frac 0.624996 0.125000 0.478123 O
  atom_frac 0.701387 0.187500 0.492707 O
  atom_frac 0.749997 0.125000 0.492708 Ti
  atom_frac 0.624997 0.187500 0.492708 Ti
  atom_frac 0.548608 0.187500 0.492708 O
  atom_frac 0.624998 0.125000 0.507292 O
  atom_frac 0.749996 0.125000 0.515628 O
  atom_frac 0.576386 0.187500 0.530212 O
  atom_frac 0.624997 0.125000 0.530212 Ti
  atom_frac 0.749997 0.187500 0.530212 Ti
  atom_frac 0.673607 0.187500 0.530212 O
  atom_frac 0.749998 0.125000 0.544797 O
  atom_frac 0.624995 0.125000 0.553132 O
  atom_frac 0.701386 0.187500 0.567716 O
  atom_frac 0.749996 0.125000 0.567717 Ti
  atom_frac 0.624996 0.187500 0.567717 Ti
  atom_frac 0.548606 0.187500 0.567717 O
  atom_frac 0.624997 0.125000 0.582301 O
  atom_frac 0.749994 0.125000 0.590636 O
  atom_frac 0.576385 0.187500 0.605221 O
  atom_frac 0.624995 0.125000 0.605221 Ti
  atom_frac 0.749995 0.187500 0.605221 Ti
  atom_frac 0.673606 0.187500 0.605221 O
  atom_frac 0.749996 0.125000 0.619805 O
  atom_frac 0.624994 0.125000 0.628141 O
  atom_frac 0.701384 0.187500 0.642725 O
  atom_frac 0.749995 0.125000 0.642725 Ti
  atom_frac 0.624995 0.187500 0.642725 Ti
  atom_frac 0.548605 0.187500 0.642726 O
  atom_frac 0.624995 0.125000 0.657310 O
  atom_frac 0.749998 0.250000 0.365610 O
  atom_frac 0.576389 0.312500 0.380194 O
  atom_frac 0.624999 0.250000 0.380195 Ti
  atom_frac 0.749999 0.312500 0.380195 Ti
  atom_frac 0.673610 0.312500 0.380195 O
  atom_frac 0.500000 0.250000 0.394779 O
  atom_frac 0.624998 0.250000 0.403114 O
  atom_frac 0.701388 0.312500 0.417699 O
  atom_frac 0.749999 0.250000 0.417699 Ti
  atom_frac 0.624999 0.312500 0.417699 Ti
  atom_frac 0.548609 0.312500 0.417699 O
  atom_frac 0.625000 0.250000 0.432283 O
  atom_frac 0.749997 0.250000 0.440619 O
  atom_frac 0.576388 0.312500 0.455203 O
  atom_frac 0.624998 0.250000 0.455203 Ti
  atom_frac 0.749998 0.312500 0.455203 Ti
  atom_frac 0.673608 0.312500 0.455204 O
  atom_frac 0.749999 0.250000 0.469788 O
  atom_frac 0.624996 0.250000 0.478123 O
  atom_frac 0.701387 0.312500 0.492707 O
  atom_frac 0.749997 0.250000 0.492708 Ti
  atom_frac 0.624997 0.312500 0.492708 Ti
  atom_frac 0.548608 0.312500 0.492708 O
  atom_frac 0.624998 0.250000 0.507292 O
  atom_frac 0.749996 0.250000 0.515628 O
  atom_frac 0.576386 0.312500 0.530212 O
  atom_frac 0.624997 0.250000 0.530212 Ti
  atom_frac 0.749997 0.312500 0.530212 Ti
  atom_frac 0.673607 0.312500 0.530212 O
  atom_frac 0.749998 0.250000 0.544797 O
  atom_frac 0.624995 0.250000 0.553132 O
  atom_frac 0.701386 0.312500 0.567716 O
  atom_frac 0.749996 0.250000 0.567717 Ti
  atom_frac 0.624996 0.312500 0.567717 Ti
  atom_frac 0.548606 0.312500 0.567717 O
  atom_frac 0.624997 0.250000 0.582301 O
  atom_frac 0.749994 0.250000 0.590636 O
  atom_frac 0.576385 0.312500 0.605221 O
  atom_frac 0.624995 0.250000 0.605221 Ti
  atom_frac 0.749995 0.312500 0.605221 Ti
  atom_frac 0.673606 0.312500 0.605221 O
  atom_frac 0.749996 0.250000 0.619805 O
  atom_frac 0.624994 0.250000 0.628141 O
  atom_frac 0.701384 0.312500 0.642725 O
  atom_frac 0.749995 0.250000 0.642725 Ti
  atom_frac 0.624995 0.312500 0.642725 Ti
  atom_frac 0.548605 0.312500 0.642726 O
  atom_frac 0.624995 0.250000 0.657310 O
  atom_frac 0.749998 0.375000 0.365610 O
  atom_frac 0.576389 0.437500 0.380194 O
  atom_frac 0.624999 0.375000 0.380195 Ti
  atom_frac 0.749999 0.437500 0.380195 Ti
  atom_frac 0.673610 0.437500 0.380195 O
  atom_frac 0.500000 0.375000 0.394779 O
  atom_frac 0.624998 0.375000 0.403114 O
  atom_frac 0.701388 0.437500 0.417699 O
  atom_frac 0.749999 0.375000 0.417699 Ti
  atom_frac 0.624999 0.437500 0.417699 Ti
  atom_frac 0.548609 0.437500 0.417699 O
  atom_frac 0.625000 0.375000 0.432283 O
  atom_frac 0.749997 0.375000 0.440619 O
  atom_frac 0.576388 0.437500 0.455203 O
  atom_frac 0.624998 0.375000 0.455203 Ti
  atom_frac 0.749998 0.437500 0.455203 Ti
  atom_frac 0.673608 0.437500 0.455204 O
  atom_frac 0.749999 0.375000 0.469788 O
  atom_frac 0.624996 0.375000 0.478123 O
  atom_frac 0.701387 0.437500 0.492707 O
  atom_frac 0.749997 0.375000 0.492708 Ti
  atom_frac 0.624997 0.437500 0.492708 Ti
  atom_frac 0.548608 0.437500 0.492708 O
  atom_frac 0.624998 0.375000 0.507292 O
  atom_frac 0.749996 0.375000 0.515628 O
  atom_frac 0.576386 0.437500 0.530212 O
  atom_frac 0.624997 0.375000 0.530212 Ti
  atom_frac 0.749997 0.437500 0.530212 Ti
  atom_frac 0.673607 0.437500 0.530212 O
  atom_frac 0.749998 0.375000 0.544797 O
  atom_frac 0.624995 0.375000 0.553132 O
  atom_frac 0.701386 0.437500 0.567716 O
  atom_frac 0.749996 0.375000 0.567717 Ti
  atom_frac 0.624996 0.437500 0.567717 Ti
  atom_frac 0.548606 0.437500 0.567717 O
  atom_frac 0.624997 0.375000 0.582301 O
  atom_frac 0.749994 0.375000 0.590636 O
  atom_frac 0.576385 0.437500 0.605221 O
  atom_frac 0.624995 0.375000 0.605221 Ti
  atom_frac 0.749995 0.437500 0.605221 Ti
  atom_frac 0.673606 0.437500 0.605221 O
  atom_frac 0.749996 0.375000 0.619805 O
  atom_frac 0.624994 0.375000 0.628141 O
  atom_frac 0.701384 0.437500 0.642725 O
  atom_frac 0.749995 0.375000 0.642725 Ti
  atom_frac 0.624995 0.437500 0.642725 Ti
  atom_frac 0.548605 0.437500 0.642726 O
  atom_frac 0.624995 0.375000 0.657310 O
  atom_frac 0.999998 0.000000 0.365610 O
  atom_frac 0.826389 0.062500 0.380194 O
  atom_frac 0.874999 0.000000 0.380195 Ti
  atom_frac 0.999999 0.062500 0.380195 Ti
  atom_frac 0.923610 0.062500 0.380195 O
  atom_frac 0.750000 0.000000 0.394779 O
  atom_frac 0.874998 0.000000 0.403114 O
  atom_frac 0.951388 0.062500 0.417699 O
  atom_frac 0.999999 0.000000 0.417699 Ti
  atom_frac 0.874999 0.062500 0.417699 Ti
  atom_frac 0.798609 0.062500 0.417699 O
  atom_frac 0.875000 0.000000 0.432283 O
  atom_frac 0.999997 0.000000 0.440619 O
  atom_frac 0.826388 0.062500 0.455203 O
  atom_frac 0.874998 0.000000 0.455203 Ti
  atom_frac 0.999998 0.062500 0.455203 Ti
  atom_frac 0.923608 0.062500 0.455204 O
  atom_frac 0.999999 0.000000 0.469788 O
  atom_frac 0.874996 0.000000 0.478123 O
  atom_frac 0.951387 0.062500 0.492707 O
  atom_frac 0.999997 0.000000 0.492708 Ti
  atom_frac 0.874997 0.062500 0.492708 Ti
  atom_frac 0.798608 0.062500 0.492708 O
  atom_frac 0.874998 0.000000 0.507292 O
  atom_frac 0.999996 0.000000 0.515628 O
  atom_frac 0.826386 0.062500 0.530212 O
  atom_frac 0.874997 0.000000 0.530212 Ti
  atom_frac 0.999997 0.062500 0.530212 Ti
  atom_frac 0.923607 0.062500 0.530212 O
  atom_frac 0.999998 0.000000 0.544797 O
  atom_frac 0.874995 0.000000 0.553132 O
  atom_frac 0.951386 0.062500 0.567716 O
  atom_frac 0.999996 0.000000 0.567717 Ti
  atom_frac 0.874996 0.062500 0.567717 Ti
  atom_frac 0.798606 0.062500 0.567717 O
  atom_frac 0.874997 0.000000 0.582301 O
  atom_frac 0.999994 0.000000 0.590636 O
  atom_frac 0.826385 0.062500 0.605221 O
  atom_frac 0.874995 0.000000 0.605221 Ti
  atom_frac 0.999995 0.062500 0.605221 Ti
  atom_frac 0.923606 0.062500 0.605221 O
  atom_frac 0.999996 0.000000 0.619805 O
  atom_frac 0.874994 0.000000 0.628141 O
  atom_frac 0.951384 0.062500 0.642725 O
  atom_frac 0.999995 0.000000 0.642725 Ti
  atom_frac 0.874995 0.062500 0.642725 Ti
  atom_frac 0.798605 0.062500 0.642726 O
  atom_frac 0.874995 0.000000 0.657310 O
  atom_frac 0.999998 0.125000 0.365610 O
  atom_frac 0.826389 0.187500 0.380194 O
  atom_frac 0.874999 0.125000 0.380195 Ti
  atom_frac 0.999999 0.187500 0.380195 Ti
  atom_frac 0.923610 0.187500 0.380195 O
  atom_frac 0.750000 0.125000 0.394779 O
  atom_frac 0.874998 0.125000 0.403114 O
  atom_frac 0.951388 0.187500 0.417699 O
  atom_frac 0.999999 0.125000 0.417699 Ti
  atom_frac 0.874999 0.187500 0.417699 Ti
  atom_frac 0.798609 0.187500 0.417699 O
  atom_frac 0.875000 0.125000 0.432283 O
  atom_frac 0.999997 0.125000 0.440619 O
  atom_frac 0.826388 0.187500 0.455203 O
  atom_frac 0.874998 0.125000 0.455203 Ti
  atom_frac 0.999998 0.187500 0.455203 Ti
  atom_frac 0.923608 0.187500 0.455204 O
  atom_frac 0.999999 0.125000 0.469788 O
  atom_frac 0.874996 0.125000 0.478123 O
  atom_frac 0.951387 0.187500 0.492707 O
  atom_frac 0.999997 0.125000 0.492708 Ti
  atom_frac 0.874997 0.187500 0.492708 Ti
  atom_frac 0.798608 0.187500 0.492708 O
  atom_frac 0.874998 0.125000 0.507292 O
  atom_frac 0.999996 0.125000 0.515628 O
  atom_frac 0.826386 0.187500 0.530212 O
  atom_frac 0.874997 0.125000 0.530212 Ti
  atom_frac 0.999997 0.187500 0.530212 Ti
  atom_frac 0.923607 0.187500 0.530212 O
  atom_frac 0.999998 0.125000 0.544797 O
  atom_frac 0.874995 0.125000 0.553132 O
  atom_frac 0.951386 0.187500 0.567716 O
  atom_frac 0.999996 0.125000 0.567717 Ti
  atom_frac 0.874996 0.187500 0.567717 Ti
  atom_frac 0.798606 0.187500 0.567717 O
  atom_frac 0.874997 0.125000 0.582301 O
  atom_frac 0.999994 0.125000 0.590636 O
  atom_frac 0.826385 0.187500 0.605221 O
  atom_frac 0.874995 0.125000 0.605221 Ti
  atom_frac 0.999995 0.187500 0.605221 Ti
  atom_frac 0.923606 0.187500 0.605221 O
  atom_frac 0.999996 0.125000 0.619805 O
  atom_frac 0.874994 0.125000 0.628141 O
  atom_frac 0.951384 0.187500 0.642725 O
  atom_frac 0.999995 0.125000 0.642725 Ti
  atom_frac 0.874995 0.187500 0.642725 Ti
  atom_frac 0.798605 0.187500 0.642726 O
  atom_frac 0.874995 0.125000 0.657310 O
  atom_frac 0.999998 0.250000 0.365610 O
  atom_frac 0.826389 0.312500 0.380194 O
  atom_frac 0.874999 0.250000 0.380195 Ti
  atom_frac 0.999999 0.312500 0.380195 Ti
  atom_frac 0.923610 0.312500 0.380195 O
  atom_frac 0.750000 0.250000 0.394779 O
  atom_frac 0.874998 0.250000 0.403114 O
  atom_frac 0.951388 0.312500 0.417699 O
  atom_frac 0.999999 0.250000 0.417699 Ti
  atom_frac 0.874999 0.312500 0.417699 Ti
  atom_frac 0.798609 0.312500 0.417699 O
  atom_frac 0.875000 0.250000 0.432283 O
  atom_frac 0.999997 0.250000 0.440619 O
  atom_frac 0.826388 0.312500 0.455203 O
  atom_frac 0.874998 0.250000 0.455203 Ti
  atom_frac 0.999998 0.312500 0.455203 Ti
  atom_frac 0.923608 0.312500 0.455204 O
  atom_frac 0.999999 0.250000 0.469788 O
  atom_frac 0.874996 0.250000 0.478123 O
  atom_frac 0.951387 0.312500 0.492707 O
  atom_frac 0.999997 0.250000 0.492708 Ti
  atom_frac 0.874997 0.312500 0.492708 Ti
  atom_frac 0.798608 0.312500 0.492708 O
  atom_frac 0.874998 0.250000 0.507292 O
  atom_frac 0.999996 0.250000 0.515628 O
  atom_frac 0.826386 0.312500 0.530212 O
  atom_frac 0.874997 0.250000 0.530212 Ti
  atom_frac 0.999997 0.312500 0.530212 Ti
  atom_frac 0.923607 0.312500 0.530212 O
  atom_frac 0.999998 0.250000 0.544797 O
  atom_frac 0.874995 0.250000 0.553132 O
  atom_frac 0.951386 0.312500 0.567716 O
  atom_frac 0.999996 0.250000 0.567717 Ti
  atom_frac 0.874996 0.312500 0.567717 Ti
  atom_frac 0.798606 0.312500 0.567717 O
  atom_frac 0.874997 0.250000 0.582301 O
  atom_frac 0.999994 0.250000 0.590636 O
  atom_frac 0.826385 0.312500 0.605221 O
  atom_frac 0.874995 0.250000 0.605221 Ti
  atom_frac 0.999995 0.312500 0.605221 Ti
  atom_frac 0.923606 0.312500 0.605221 O
  atom_frac 0.999996 0.250000 0.619805 O
  atom_frac 0.874994 0.250000 0.628141 O
  atom_frac 0.951384 0.312500 0.642725 O
  atom_frac 0.999995 0.250000 0.642725 Ti
  atom_frac 0.874995 0.312500 0.642725 Ti
  atom_frac 0.798605 0.312500 0.642726 O
  atom_frac 0.874995 0.250000 0.657310 O
  atom_frac 0.999998 0.375000 0.365610 O
  atom_frac 0.826389 0.437500 0.380194 O
  atom_frac 0.874999 0.375000 0.380195 Ti
  atom_frac 0.999999 0.437500 0.380195 Ti
  atom_frac 0.923610 0.437500 0.380195 O
  atom_frac 0.750000 0.375000 0.394779 O
  atom_frac 0.874998 0.375000 0.403114 O
  atom_frac 0.951388 0.437500 0.417699 O
  atom_frac 0.999999 0.375000 0.417699 Ti
  atom_frac 0.874999 0.437500 0.417699 Ti
  atom_frac 0.798609 0.437500 0.417699 O
  atom_frac 0.875000 0.375000 0.432283 O
  atom_frac 0.999997 0.375000 0.440619 O
  atom_frac 0.826388 0.437500 0.455203 O
  atom_frac 0.874998 0.375000 0.455203 Ti
  atom_frac 0.999998 0.437500 0.455203 Ti
  atom_frac 0.923608 0.437500 0.455204 O
  atom_frac 0.999999 0.375000 0.469788 O
  atom_frac 0.874996 0.375000 0.478123 O
  atom_frac 0.951387 0.437500 0.492707 O
  atom_frac 0.999997 0.375000 0.492708 Ti
  atom_frac 0.874997 0.437500 0.492708 Ti
  atom_frac 0.798608 0.437500 0.492708 O
  atom_frac 0.874998 0.375000 0.507292 O
  atom_frac 0.999996 0.375000 0.515628 O
  atom_frac 0.826386 0.437500 0.530212 O
  atom_frac 0.874997 0.375000 0.530212 Ti
  atom_frac 0.999997 0.437500 0.530212 Ti
  atom_frac 0.923607 0.437500 0.530212 O
  atom_frac 0.999998 0.375000 0.544797 O
  atom_frac 0.874995 0.375000 0.553132 O
  atom_frac 0.951386 0.437500 0.567716 O
  atom_frac 0.999996 0.375000 0.567717 Ti
  atom_frac 0.874996 0.437500 0.567717 Ti
  atom_frac 0.798606 0.437500 0.567717 O
  atom_frac 0.874997 0.375000 0.582301 O
  atom_frac 0.999994 0.375000 0.590636 O
  atom_frac 0.826385 0.437500 0.605221 O
  atom_frac 0.874995 0.375000 0.605221 Ti
  atom_frac 0.999995 0.437500 0.605221 Ti
  atom_frac 0.923606 0.437500 0.605221 O
  atom_frac 0.999996 0.375000 0.619805 O
  atom_frac 0.874994 0.375000 0.628141 O
  atom_frac 0.951384 0.437500 0.642725 O
  atom_frac 0.999995 0.375000 0.642725 Ti
  atom_frac 0.874995 0.437500 0.642725 Ti
  atom_frac 0.798605 0.437500 0.642726 O
  atom_frac 0.874995 0.375000 0.657310 O
  atom_frac 0.249998 0.500000 0.365610 O
  atom_frac 0.076389 0.562500 0.380194 O
  atom_frac 0.124999 0.500000 0.380195 Ti
  atom_frac 0.249999 0.562500 0.380195 Ti
  atom_frac 0.173610 0.562500 0.380195 O
  atom_frac 0.000000 0.500000 0.394779 O
  atom_frac 0.124998 0.500000 0.403114 O
  atom_frac 0.201388 0.562500 0.417699 O
  atom_frac 0.249999 0.500000 0.417699 Ti
  atom_frac 0.124999 0.562500 0.417699 Ti
  atom_frac 0.048609 0.562500 0.417699 O
  atom_frac 0.125000 0.500000 0.432283 O
  atom_frac 0.249997 0.500000 0.440619 O
  atom_frac 0.076388 0.562500 0.455203 O
  atom_frac 0.124998 0.500000 0.455203 Ti
  atom_frac 0.249998 0.562500 0.455203 Ti
  atom_frac 0.173608 0.562500 0.455204 O
  atom_frac 0.249999 0.500000 0.469788 O
  atom_frac 0.124996 0.500000 0.478123 O
  atom_frac 0.201387 0.562500 0.492707 O
  atom_frac 0.249997 0.500000 0.492708 Ti
  atom_frac 0.124997 0.562500 0.492708 Ti
  atom_frac 0.048608 0.562500 0.492708 O
  atom_frac 0.124998 0.500000 0.507292 O
  atom_frac 0.249996 0.500000 0.515628 O
  atom_frac 0.076386 0.562500 0.530212 O
  atom_frac 0.124997 0.500000 0.530212 Ti
  atom_frac 0.249997 0.562500 0.530212 Ti
  atom_frac 0.173607 0.562500 0.530212 O
  atom_frac 0.249998 0.500000 0.544797 O
  atom_frac 0.124995 0.500000 0.553132 O
  atom_frac 0.201386 0.562500 0.567716 O
  atom_frac 0.249996 0.500000 0.567717 Ti
  atom_frac 0.124996 0.562500 0.567717 Ti
  atom_frac 0.048606 0.562500 0.567717 O
  atom_frac 0.124997 0.500000 0.582301 O
  atom_frac 0.249994 0.500000 0.590636 O
  atom_frac 0.076385 0.562500 0.605221 O
  atom_frac 0.124995 0.500000 0.605221 Ti
  atom_frac 0.249995 0.562500 0.605221 Ti
  atom_frac 0.173606 0.562500 0.605221 O
  atom_frac 0.249996 0.500000 0.619805 O
  atom_frac 0.124994 0.500000 0.628141 O
  atom_frac 0.201384 0.562500 0.642725 O
  atom_frac 0.249995 0.500000 0.642725 Ti
  atom_frac 0.124995 0.562500 0.642725 Ti
  atom_frac 0.048605 0.562500 0.642726 O
  atom_frac 0.124995 0.500000 0.657310 O
  atom_frac 0.249998 0.625000 0.365610 O
  atom_frac 0.076389 0.687500 0.380194 O
  atom_frac 0.124999 0.625000 0.380195 Ti
  atom_frac 0.249999 0.687500 0.380195 Ti
  atom_frac 0.173610 0.687500 0.380195 O
  atom_frac 0.000000 0.625000 0.394779 O
  atom_frac 0.124998 0.625000 0.403114 O
  atom_frac 0.201388 0.687500 0.417699 O
  atom_frac 0.249999 0.625000 0.417699 Ti
  atom_frac 0.124999 0.687500 0.417699 Ti
  atom_frac 0.048609 0.687500 0.417699 O
  atom_frac 0.125000 0.625000 0.432283 O
  atom_frac 0.249997 0.625000 0.440619 O
  atom_frac 0.076388 0.687500 0.455203 O
  atom_frac 0.124998 0.625000 0.455203 Ti
  atom_frac 0.249998 0.687500 0.455203 Ti
  atom_frac 0.173608 0.687500 0.455204 O
  atom_frac 0.249999 0.625000 0.469788 O
  atom_frac 0.124996 0.625000 0.478123 O
  atom_frac 0.201387 0.687500 0.492707 O
  atom_frac 0.249997 0.625000 0.492708 Ti
  atom_frac 0.124997 0.687500 0.492708 Ti
  atom_frac 0.048608 0.687500 0.492708 O
  atom_frac 0.124998 0.625000 0.507292 O
  atom_frac 0.249996 0.625000 0.515628 O
  atom_frac 0.076386 0.687500 0.530212 O
  atom_frac 0.124997 0.625000 0.530212 Ti
  atom_frac 0.249997 0.687500 0.530212 Ti
  atom_frac 0.173607 0.687500 0.530212 O
  atom_frac 0.249998 0.625000 0.544797 O
  atom_frac 0.124995 0.625000 0.553132 O
  atom_frac 0.201386 0.687500 0.567716 O
  atom_frac 0.249996 0.625000 0.567717 Ti
  atom_frac 0.124996 0.687500 0.567717 Ti
  atom_frac 0.048606 0.687500 0.567717 O
  atom_frac 0.124997 0.625000 0.582301 O
  atom_frac 0.249994 0.625000 0.590636 O
  atom_frac 0.076385 0.687500 0.605221 O
  atom_frac 0.124995 0.625000 0.605221 Ti
  atom_frac 0.249995 0.687500 0.605221 Ti
  atom_frac 0.173606 0.687500 0.605221 O
  atom_frac 0.249996 0.625000 0.619805 O
  atom_frac 0.124994 0.625000 0.628141 O
  atom_frac 0.201384 0.687500 0.642725 O
  atom_frac 0.249995 0.625000 0.642725 Ti
  atom_frac 0.124995 0.687500 0.642725 Ti
  atom_frac 0.048605 0.687500 0.642726 O
  atom_frac 0.124995 0.625000 0.657310 O
  atom_frac 0.249998 0.750000 0.365610 O
  atom_frac 0.076389 0.812500 0.380194 O
  atom_frac 0.124999 0.750000 0.380195 Ti
  atom_frac 0.249999 0.812500 0.380195 Ti
  atom_frac 0.173610 0.812500 0.380195 O
  atom_frac 0.000000 0.750000 0.394779 O
  atom_frac 0.124998 0.750000 0.403114 O
  atom_frac 0.201388 0.812500 0.417699 O
  atom_frac 0.249999 0.750000 0.417699 Ti
  atom_frac 0.124999 0.812500 0.417699 Ti
  atom_frac 0.048609 0.812500 0.417699 O
  atom_frac 0.125000 0.750000 0.432283 O
  atom_frac 0.249997 0.750000 0.440619 O
  atom_frac 0.076388 0.812500 0.455203 O
  atom_frac 0.124998 0.750000 0.455203 Ti
  atom_frac 0.249998 0.812500 0.455203 Ti
  atom_frac 0.173608 0.812500 0.455204 O
  atom_frac 0.249999 0.750000 0.469788 O
  atom_frac 0.124996 0.750000 0.478123 O
  atom_frac 0.201387 0.812500 0.492707 O
  atom_frac 0.249997 0.750000 0.492708 Ti
  atom_frac 0.124997 0.812500 0.492708 Ti
  atom_frac 0.048608 0.812500 0.492708 O
  atom_frac 0.124998 0.750000 0.507292 O
  atom_frac 0.249996 0.750000 0.515628 O
  atom_frac 0.076386 0.812500 0.530212 O
  atom_frac 0.124997 0.750000 0.530212 Ti
  atom_frac 0.249997 0.812500 0.530212 Ti
  atom_frac 0.173607 0.812500 0.530212 O
  atom_frac 0.249998 0.750000 0.544797 O
  atom_frac 0.124995 0.750000 0.553132 O
  atom_frac 0.201386 0.812500 0.567716 O
  atom_frac 0.249996 0.750000 0.567717 Ti
  atom_frac 0.124996 0.812500 0.567717 Ti
  atom_frac 0.048606 0.812500 0.567717 O
  atom_frac 0.124997 0.750000 0.582301 O
  atom_frac 0.249994 0.750000 0.590636 O
  atom_frac 0.076385 0.812500 0.605221 O
  atom_frac 0.124995 0.750000 0.605221 Ti
  atom_frac 0.249995 0.812500 0.605221 Ti
  atom_frac 0.173606 0.812500 0.605221 O
  atom_frac 0.249996 0.750000 0.619805 O
  atom_frac 0.124994 0.750000 0.628141 O
  atom_frac 0.201384 0.812500 0.642725 O
  atom_frac 0.249995 0.750000 0.642725 Ti
  atom_frac 0.124995 0.812500 0.642725 Ti
  atom_frac 0.048605 0.812500 0.642726 O
  atom_frac 0.124995 0.750000 0.657310 O
  atom_frac 0.249998 0.875000 0.365610 O
  atom_frac 0.076389 0.937500 0.380194 O
  atom_frac 0.124999 0.875000 0.380195 Ti
  atom_frac 0.249999 0.937500 0.380195 Ti
  atom_frac 0.173610 0.937500 0.380195 O
  atom_frac 0.000000 0.875000 0.394779 O
  atom_frac 0.124998 0.875000 0.403114 O
  atom_frac 0.201388 0.937500 0.417699 O
  atom_frac 0.249999 0.875000 0.417699 Ti
  atom_frac 0.124999 0.937500 0.417699 Ti
  atom_frac 0.048609 0.937500 0.417699 O
  atom_frac 0.125000 0.875000 0.432283 O
  atom_frac 0.249997 0.875000 0.440619 O
  atom_frac 0.076388 0.937500 0.455203 O
  atom_frac 0.124998 0.875000 0.455203 Ti
  atom_frac 0.249998 0.937500 0.455203 Ti
  atom_frac 0.173608 0.937500 0.455204 O
  atom_frac 0.249999 0.875000 0.469788 O
  atom_frac 0.124996 0.875000 0.478123 O
  atom_frac 0.201387 0.937500 0.492707 O
  atom_frac 0.249997 0.875000 0.492708 Ti
  atom_frac 0.124997 0.937500 0.492708 Ti
  atom_frac 0.048608 0.937500 0.492708 O
  atom_frac 0.124998 0.875000 0.507292 O
  atom_frac 0.249996 0.875000 0.515628 O
  atom_frac 0.076386 0.937500 0.530212 O
  atom_frac 0.124997 0.875000 0.530212 Ti
  atom_frac 0.249997 0.937500 0.530212 Ti
  atom_frac 0.173607 0.937500 0.530212 O
  atom_frac 0.249998 0.875000 0.544797 O
  atom_frac 0.124995 0.875000 0.553132 O
  atom_frac 0.201386 0.937500 0.567716 O
  atom_frac 0.249996 0.875000 0.567717 Ti
  atom_frac 0.124996 0.937500 0.567717 Ti
  atom_frac 0.048606 0.937500 0.567717 O
  atom_frac 0.124997 0.875000 0.582301 O
  atom_frac 0.249994 0.875000 0.590636 O
  atom_frac 0.076385 0.937500 0.605221 O
  atom_frac 0.124995 0.875000 0.605221 Ti
  atom_frac 0.249995 0.937500 0.605221 Ti
  atom_frac 0.173606 0.937500 0.605221 O
  atom_frac 0.249996 0.875000 0.619805 O
  atom_frac 0.124994 0.875000 0.628141 O
  atom_frac 0.201384 0.937500 0.642725 O
  atom_frac 0.249995 0.875000 0.642725 Ti
  atom_frac 0.124995 0.937500 0.642725 Ti
  atom_frac 0.048605 0.937500 0.642726 O
  atom_frac 0.124995 0.875000 0.657310 O
  atom_frac 0.499998 0.500000 0.365610 O
  atom_frac 0.326389 0.562500 0.380194 O
  atom_frac 0.374999 0.500000 0.380195 Ti
  atom_frac 0.499999 0.562500 0.380195 Ti
  atom_frac 0.423610 0.562500 0.380195 O
  atom_frac 0.250000 0.500000 0.394779 O
  atom_frac 0.374998 0.500000 0.403114 O
  atom_frac 0.451388 0.562500 0.417699 O
  atom_frac 0.499999 0.500000 0.417699 Ti
  atom_frac 0.374999 0.562500 0.417699 Ti
  atom_frac 0.298609 0.562500 0.417699 O
  atom_frac 0.375000 0.500000 0.432283 O
  atom_frac 0.499997 0.500000 0.440619 O
  atom_frac 0.326388 0.562500 0.455203 O
  atom_frac 0.374998 0.500000 0.455203 Ti
  atom_frac 0.499998 0.562500 0.455203 Ti
  atom_frac 0.423608 0.562500 0.455204 O
  atom_frac 0.499999 0.500000 0.469788 O
  atom_frac 0.374996 0.500000 0.478123 O
  atom_frac 0.451387 0.562500 0.492707 O
  atom_frac 0.499997 0.500000 0.492708 Ti
  atom_frac 0.374997 0.562500 0.492708 Ti
  atom_frac 0.298608 0.562500 0.492708 O
  atom_frac 0.374998 0.500000 0.507292 O
  atom_frac 0.499996 0.500000 0.515628 O
  atom_frac 0.326386 0.562500 0.530212 O
  atom_frac 0.374997 0.500000 0.530212 Ti
  atom_frac 0.499997 0.562500 0.530212 Ti
  atom_frac 0.423607 0.562500 0.530212 O
  atom_frac 0.499998 0.500000 0.544797 O
  atom_frac 0.374995 0.500000 0.553132 O
  atom_frac 0.451386 0.562500 0.567716 O
  atom_frac 0.499996 0.500000 0.567717 Ti
  atom_frac 0.374996 0.562500 0.567717 Ti
  atom_frac 0.298606 0.562500 0.567717 O
  atom_frac 0.374997 0.500000 0.582301 O
  atom_frac 0.499994 0.500000 0.590636 O
  atom_frac 0.326385 0.562500 0.605221 O
  atom_frac 0.374995 0.500000 0.605221 Ti
  atom_frac 0.499995 0.562500 0.605221 Ti
  atom_frac 0.423606 0.562500 0.605221 O
  atom_frac 0.499996 0.500000 0.619805 O
  atom_frac 0.374994 0.500000 0.628141 O
  atom_frac 0.451384 0.562500 0.642725 O
  atom_frac 0.499995 0.500000 0.642725 Ti
  atom_frac 0.374995 0.562500 0.642725 Ti
  atom_frac 0.298605 0.562500 0.642726 O
  atom_frac 0.374995 0.500000 0.657310 O
  atom_frac 0.499998 0.625000 0.365610 O
  atom_frac 0.326389 0.687500 0.380194 O
  atom_frac 0.374999 0.625000 0.380195 Ti
  atom_frac 0.499999 0.687500 0.380195 Ti
  atom_frac 0.423610 0.687500 0.380195 O
  atom_frac 0.250000 0.625000 0.394779 O
  atom_frac 0.374998 0.625000 0.403114 O
  atom_frac 0.451388 0.687500 0.417699 O
  atom_frac 0.499999 0.625000 0.417699 Ti
  atom_frac 0.374999 0.687500 0.417699 Ti
  atom_frac 0.298609 0.687500 0.417699 O
  atom_frac 0.375000 0.625000 0.432283 O
  atom_frac 0.499997 0.625000 0.440619 O
  atom_frac 0.326388 0.687500 0.455203 O
  atom_frac 0.374998 0.625000 0.455203 Ti
  atom_frac 0.499998 0.687500 0.455203 Ti
  atom_frac 0.423608 0.687500 0.455204 O
  atom_frac 0.499999 0.625000 0.469788 O
  atom_frac 0.374996 0.625000 0.478123 O
  atom_frac 0.451387 0.687500 0.492707 O
  atom_frac 0.499997 0.625000 0.492708 Ti
  atom_frac 0.374997 0.687500 0.492708 Ti
  atom_frac 0.298608 0.687500 0.492708 O
  atom_frac 0.374998 0.625000 0.507292 O
  atom_frac 0.499996 0.625000 0.515628 O
  atom_frac 0.326386 0.687500 0.530212 O
  atom_frac 0.374997 0.625000 0.530212 Ti
  atom_frac 0.499997 0.687500 0.530212 Ti
  atom_frac 0.423607 0.687500 0.530212 O
  atom_frac 0.499998 0.625000 0.544797 O
  atom_frac 0.374995 0.625000 0.553132 O
  atom_frac 0.451386 0.687500 0.567716 O
  atom_frac 0.499996 0.625000 0.567717 Ti
  atom_frac 0.374996 0.687500 0.567717 Ti
  atom_frac 0.298606 0.687500 0.567717 O
  atom_frac 0.374997 0.625000 0.582301 O
  atom_frac 0.499994 0.625000 0.590636 O
  atom_frac 0.326385 0.687500 0.605221 O
  atom_frac 0.374995 0.625000 0.605221 Ti
  atom_frac 0.499995 0.687500 0.605221 Ti
  atom_frac 0.423606 0.687500 0.605221 O
  atom_frac 0.499996 0.625000 0.619805 O
  atom_frac 0.374994 0.625000 0.628141 O
  atom_frac 0.451384 0.687500 0.642725 O
  atom_frac 0.499995 0.625000 0.642725 Ti
  atom_frac 0.374995 0.687500 0.642725 Ti
  atom_frac 0.298605 0.687500 0.642726 O
  atom_frac 0.374995 0.625000 0.657310 O
  atom_frac 0.499998 0.750000 0.365610 O
  atom_frac 0.326389 0.812500 0.380194 O
  atom_frac 0.374999 0.750000 0.380195 Ti
  atom_frac 0.499999 0.812500 0.380195 Ti
  atom_frac 0.423610 0.812500 0.380195 O
  atom_frac 0.250000 0.750000 0.394779 O
  atom_frac 0.374998 0.750000 0.403114 O
  atom_frac 0.451388 0.812500 0.417699 O
  atom_frac 0.499999 0.750000 0.417699 Ti
  atom_frac 0.374999 0.812500 0.417699 Ti
  atom_frac 0.298609 0.812500 0.417699 O
  atom_frac 0.375000 0.750000 0.432283 O
  atom_frac 0.499997 0.750000 0.440619 O
  atom_frac 0.326388 0.812500 0.455203 O
  atom_frac 0.374998 0.750000 0.455203 Ti
  atom_frac 0.499998 0.812500 0.455203 Ti
  atom_frac 0.423608 0.812500 0.455204 O
  atom_frac 0.499999 0.750000 0.469788 O
  atom_frac 0.374996 0.750000 0.478123 O
  atom_frac 0.451387 0.812500 0.492707 O
  atom_frac 0.499997 0.750000 0.492708 Ti
  atom_frac 0.374997 0.812500 0.492708 Ti
  atom_frac 0.298608 0.812500 0.492708 O
  atom_frac 0.374998 0.750000 0.507292 O
  atom_frac 0.499996 0.750000 0.515628 O
  atom_frac 0.326386 0.812500 0.530212 O
  atom_frac 0.374997 0.750000 0.530212 Ti
  atom_frac 0.499997 0.812500 0.530212 Ti
  atom_frac 0.423607 0.812500 0.530212 O
  atom_frac 0.499998 0.750000 0.544797 O
  atom_frac 0.374995 0.750000 0.553132 O
  atom_frac 0.451386 0.812500 0.567716 O
  atom_frac 0.499996 0.750000 0.567717 Ti
  atom_frac 0.374996 0.812500 0.567717 Ti
  atom_frac 0.298606 0.812500 0.567717 O
  atom_frac 0.374997 0.750000 0.582301 O
  atom_frac 0.499994 0.750000 0.590636 O
  atom_frac 0.326385 0.812500 0.605221 O
  atom_frac 0.374995 0.750000 0.605221 Ti
  atom_frac 0.499995 0.812500 0.605221 Ti
  atom_frac 0.423606 0.812500 0.605221 O
  atom_frac 0.499996 0.750000 0.619805 O
  atom_frac 0.374994 0.750000 0.628141 O
  atom_frac 0.451384 0.812500 0.642725 O
  atom_frac 0.499995 0.750000 0.642725 Ti
  atom_frac 0.374995 0.812500 0.642725 Ti
  atom_frac 0.298605 0.812500 0.642726 O
  atom_frac 0.374995 0.750000 0.657310 O
  atom_frac 0.499998 0.875000 0.365610 O
  atom_frac 0.326389 0.937500 0.380194 O
  atom_frac 0.374999 0.875000 0.380195 Ti
  atom_frac 0.499999 0.937500 0.380195 Ti
  atom_frac 0.423610 0.937500 0.380195 O
  atom_frac 0.250000 0.875000 0.394779 O
  atom_frac 0.374998 0.875000 0.403114 O
  atom_frac 0.451388 0.937500 0.417699 O
  atom_frac 0.499999 0.875000 0.417699 Ti
  atom_frac 0.374999 0.937500 0.417699 Ti
  atom_frac 0.298609 0.937500 0.417699 O
  atom_frac 0.375000 0.875000 0.432283 O
  atom_frac 0.499997 0.875000 0.440619 O
  atom_frac 0.326388 0.937500 0.455203 O
  atom_frac 0.374998 0.875000 0.455203 Ti
  atom_frac 0.499998 0.937500 0.455203 Ti
  atom_frac 0.423608 0.937500 0.455204 O
  atom_frac 0.499999 0.875000 0.469788 O
  atom_frac 0.374996 0.875000 0.478123 O
  atom_frac 0.451387 0.937500 0.492707 O
  atom_frac 0.499997 0.875000 0.492708 Ti
  atom_frac 0.374997 0.937500 0.492708 Ti
  atom_frac 0.298608 0.937500 0.492708 O
  atom_frac 0.374998 0.875000 0.507292 O
  atom_frac 0.499996 0.875000 0.515628 O
  atom_frac 0.326386 0.937500 0.530212 O
  atom_frac 0.374997 0.875000 0.530212 Ti
  atom_frac 0.499997 0.937500 0.530212 Ti
  atom_frac 0.423607 0.937500 0.530212 O
  atom_frac 0.499998 0.875000 0.544797 O
  atom_frac 0.374995 0.875000 0.553132 O
  atom_frac 0.451386 0.937500 0.567716 O
  atom_frac 0.499996 0.875000 0.567717 Ti
  atom_frac 0.374996 0.937500 0.567717 Ti
  atom_frac 0.298606 0.937500 0.567717 O
  atom_frac 0.374997 0.875000 0.582301 O
  atom_frac 0.499994 0.875000 0.590636 O
  atom_frac 0.326385 0.937500 0.605221 O
  atom_frac 0.374995 0.875000 0.605221 Ti
  atom_frac 0.499995 0.937500 0.605221 Ti
  atom_frac 0.423606 0.937500 0.605221 O
  atom_frac 0.499996 0.875000 0.619805 O
  atom_frac 0.374994 0.875000 0.628141 O
  atom_frac 0.451384 0.937500 0.642725 O
  atom_frac 0.499995 0.875000 0.642725 Ti
  atom_frac 0.374995 0.937500 0.642725 Ti
  atom_frac 0.298605 0.937500 0.642726 O
  atom_frac 0.374995 0.875000 0.657310 O
  atom_frac 0.749998 0.500000 0.365610 O
  atom_frac 0.576389 0.562500 0.380194 O
  atom_frac 0.624999 0.500000 0.380195 Ti
  atom_frac 0.749999 0.562500 0.380195 Ti
  atom_frac 0.673610 0.562500 0.380195 O
  atom_frac 0.500000 0.500000 0.394779 O
  atom_frac 0.624998 0.500000 0.403114 O
  atom_frac 0.701388 0.562500 0.417699 O
  atom_frac 0.749999 0.500000 0.417699 Ti
  atom_frac 0.624999 0.562500 0.417699 Ti
  atom_frac 0.548609 0.562500 0.417699 O
  atom_frac 0.625000 0.500000 0.432283 O
  atom_frac 0.749997 0.500000 0.440619 O
  atom_frac 0.576388 0.562500 0.455203 O
  atom_frac 0.624998 0.500000 0.455203 Ti
  atom_frac 0.749998 0.562500 0.455203 Ti
  atom_frac 0.673608 0.562500 0.455204 O
  atom_frac 0.749999 0.500000 0.469788 O
  atom_frac 0.624996 0.500000 0.478123 O
  atom_frac 0.701387 0.562500 0.492707 O
  atom_frac 0.749997 0.500000 0.492708 Ti
  atom_frac 0.624997 0.562500 0.492708 Ti
  atom_frac 0.548608 0.562500 0.492708 O
  atom_frac 0.624998 0.500000 0.507292 O
  atom_frac 0.749996 0.500000 0.515628 O
  atom_frac 0.576386 0.562500 0.530212 O
  atom_frac 0.624997 0.500000 0.530212 Ti
  atom_frac 0.749997 0.562500 0.530212 Ti
  atom_frac 0.673607 0.562500 0.530212 O
  atom_frac 0.749998 0.500000 0.544797 O
  atom_frac 0.624995 0.500000 0.553132 O
  atom_frac 0.701386 0.562500 0.567716 O
  atom_frac 0.749996 0.500000 0.567717 Ti
  atom_frac 0.624996 0.562500 0.567717 Ti
  atom_frac 0.548606 0.562500 0.567717 O
  atom_frac 0.624997 0.500000 0.582301 O
  atom_frac 0.749994 0.500000 0.590636 O
  atom_frac 0.576385 0.562500 0.605221 O
  atom_frac 0.624995 0.500000 0.605221 Ti
  atom_frac 0.749995 0.562500 0.605221 Ti
  atom_frac 0.673606 0.562500 0.605221 O
  atom_frac 0.749996 0.500000 0.619805 O
  atom_frac 0.624994 0.500000 0.628141 O
  atom_frac 0.701384 0.562500 0.642725 O
  atom_frac 0.749995 0.500000 0.642725 Ti
  atom_frac 0.624995 0.562500 0.642725 Ti
  atom_frac 0.548605 0.562500 0.642726 O
  atom_frac 0.624995 0.500000 0.657310 O
  atom_frac 0.749998 0.625000 0.365610 O
  atom_frac 0.576389 0.687500 0.380194 O
  atom_frac 0.624999 0.625000 0.380195 Ti
  atom_frac 0.749999 0.687500 0.380195 Ti
  atom_frac 0.673610 0.687500 0.380195 O
  atom_frac 0.500000 0.625000 0.394779 O
  atom_frac 0.624998 0.625000 0.403114 O
  atom_frac 0.701388 0.687500 0.417699 O
  atom_frac 0.749999 0.625000 0.417699 Ti
  atom_frac 0.624999 0.687500 0.417699 Ti
  atom_frac 0.548609 0.687500 0.417699 O
  atom_frac 0.625000 0.625000 0.432283 O
  atom_frac 0.749997 0.625000 0.440619 O
  atom_frac 0.576388 0.687500 0.455203 O
  atom_frac 0.624998 0.625000 0.455203 Ti
  atom_frac 0.749998 0.687500 0.455203 Ti
  atom_frac 0.673608 0.687500 0.455204 O
  atom_frac 0.749999 0.625000 0.469788 O
  atom_frac 0.624996 0.625000 0.478123 O
  atom_frac 0.701387 0.687500 0.492707 O
  atom_frac 0.749997 0.625000 0.492708 Ti
  atom_frac 0.624997 0.687500 0.492708 Ti
  atom_frac 0.548608 0.687500 0.492708 O
  atom_frac 0.624998 0.625000 0.507292 O
  atom_frac 0.749996 0.625000 0.515628 O
  atom_frac 0.576386 0.687500 0.530212 O
  atom_frac 0.624997 0.625000 0.530212 Ti
  atom_frac 0.749997 0.687500 0.530212 Ti
  atom_frac 0.673607 0.687500 0.530212 O
  atom_frac 0.749998 0.625000 0.544797 O
  atom_frac 0.624995 0.625000 0.553132 O
  atom_frac 0.701386 0.687500 0.567716 O
  atom_frac 0.749996 0.625000 0.567717 Ti
  atom_frac 0.624996 0.687500 0.567717 Ti
  atom_frac 0.548606 0.687500 0.567717 O
  atom_frac 0.624997 0.625000 0.582301 O
  atom_frac 0.749994 0.625000 0.590636 O
  atom_frac 0.576385 0.687500 0.605221 O
  atom_frac 0.624995 0.625000 0.605221 Ti
  atom_frac 0.749995 0.687500 0.605221 Ti
  atom_frac 0.673606 0.687500 0.605221 O
  atom_frac 0.749996 0.625000 0.619805 O
  atom_frac 0.624994 0.625000 0.628141 O
  atom_frac 0.701384 0.687500 0.642725 O
  atom_frac 0.749995 0.625000 0.642725 Ti
  atom_frac 0.624995 0.687500 0.642725 Ti
  atom_frac 0.548605 0.687500 0.642726 O
  atom_frac 0.624995 0.625000 0.657310 O
  atom_frac 0.749998 0.750000 0.365610 O
  atom_frac 0.576389 0.812500 0.380194 O
  atom_frac 0.624999 0.750000 0.380195 Ti
  atom_frac 0.749999 0.812500 0.380195 Ti
  atom_frac 0.673610 0.812500 0.380195 O
  atom_frac 0.500000 0.750000 0.394779 O
  atom_frac 0.624998 0.750000 0.403114 O
  atom_frac 0.701388 0.812500 0.417699 O
  atom_frac 0.749999 0.750000 0.417699 Ti
  atom_frac 0.624999 0.812500 0.417699 Ti
  atom_frac 0.548609 0.812500 0.417699 O
  atom_frac 0.625000 0.750000 0.432283 O
  atom_frac 0.749997 0.750000 0.440619 O
  atom_frac 0.576388 0.812500 0.455203 O
  atom_frac 0.624998 0.750000 0.455203 Ti
  atom_frac 0.749998 0.812500 0.455203 Ti
  atom_frac 0.673608 0.812500 0.455204 O
  atom_frac 0.749999 0.750000 0.469788 O
  atom_frac 0.624996 0.750000 0.478123 O
  atom_frac 0.701387 0.812500 0.492707 O
  atom_frac 0.749997 0.750000 0.492708 Ti
  atom_frac 0.624997 0.812500 0.492708 Ti
  atom_frac 0.548608 0.812500 0.492708 O
  atom_frac 0.624998 0.750000 0.507292 O
  atom_frac 0.749996 0.750000 0.515628 O
  atom_frac 0.576386 0.812500 0.530212 O
  atom_frac 0.624997 0.750000 0.530212 Ti
  atom_frac 0.749997 0.812500 0.530212 Ti
  atom_frac 0.673607 0.812500 0.530212 O
  atom_frac 0.749998 0.750000 0.544797 O
  atom_frac 0.624995 0.750000 0.553132 O
  atom_frac 0.701386 0.812500 0.567716 O
  atom_frac 0.749996 0.750000 0.567717 Ti
  atom_frac 0.624996 0.812500 0.567717 Ti
  atom_frac 0.548606 0.812500 0.567717 O
  atom_frac 0.624997 0.750000 0.582301 O
  atom_frac 0.749994 0.750000 0.590636 O
  atom_frac 0.576385 0.812500 0.605221 O
  atom_frac 0.624995 0.750000 0.605221 Ti
  atom_frac 0.749995 0.812500 0.605221 Ti
  atom_frac 0.673606 0.812500 0.605221 O
  atom_frac 0.749996 0.750000 0.619805 O
  atom_frac 0.624994 0.750000 0.628141 O
  atom_frac 0.701384 0.812500 0.642725 O
  atom_frac 0.749995 0.750000 0.642725 Ti
  atom_frac 0.624995 0.812500 0.642725 Ti
  atom_frac 0.548605 0.812500 0.642726 O
  atom_frac 0.624995 0.750000 0.657310 O
  atom_frac 0.749998 0.875000 0.365610 O
  atom_frac 0.576389 0.937500 0.380194 O
  atom_frac 0.624999 0.875000 0.380195 Ti
  atom_frac 0.749999 0.937500 0.380195 Ti
  atom_frac 0.673610 0.937500 0.380195 O
  atom_frac 0.500000 0.875000 0.394779 O
  atom_frac 0.624998 0.875000 0.403114 O
  atom_frac 0.701388 0.937500 0.417699 O
  atom_frac 0.749999 0.875000 0.417699 Ti
  atom_frac 0.624999 0.937500 0.417699 Ti
  atom_frac 0.548609 0.937500 0.417699 O
  atom_frac 0.625000 0.875000 0.432283 O
  atom_frac 0.749997 0.875000 0.440619 O
  atom_frac 0.576388 0.937500 0.455203 O
  atom_frac 0.624998 0.875000 0.455203 Ti
  atom_frac 0.749998 0.937500 0.455203 Ti
  atom_frac 0.673608 0.937500 0.455204 O
  atom_frac 0.749999 0.875000 0.469788 O
  atom_frac 0.624996 0.875000 0.478123 O
  atom_frac 0.701387 0.937500 0.492707 O
  atom_frac 0.749997 0.875000 0.492708 Ti
  atom_frac 0.624997 0.937500 0.492708 Ti
  atom_frac 0.548608 0.937500 0.492708 O
  atom_frac 0.624998 0.875000 0.507292 O
  atom_frac 0.749996 0.875000 0.515628 O
  atom_frac 0.576386 0.937500 0.530212 O
  atom_frac 0.624997 0.875000 0.530212 Ti
  atom_frac 0.749997 0.937500 0.530212 Ti
  atom_frac 0.673607 0.937500 0.530212 O
  atom_frac 0.749998 0.875000 0.544797 O
  atom_frac 0.624995 0.875000 0.553132 O
  atom_frac 0.701386 0.937500 0.567716 O
  atom_frac 0.749996 0.875000 0.567717 Ti
  atom_frac 0.624996 0.937500 0.567717 Ti
  atom_frac 0.548606 0.937500 0.567717 O
  atom_frac 0.624997 0.875000 0.582301 O
  atom_frac 0.749994 0.875000 0.590636 O
  atom_frac 0.576385 0.937500 0.605221 O
  atom_frac 0.624995 0.875000 0.605221 Ti
  atom_frac 0.749995 0.937500 0.605221 Ti
  atom_frac 0.673606 0.937500 0.605221 O
  atom_frac 0.749996 0.875000 0.619805 O
  atom_frac 0.624994 0.875000 0.628141 O
  atom_frac 0.701384 0.937500 0.642725 O
  atom_frac 0.749995 0.875000 0.642725 Ti
  atom_frac 0.624995 0.937500 0.642725 Ti
  atom_frac 0.548605 0.937500 0.642726 O
  atom_frac 0.624995 0.875000 0.657310 O
  atom_frac 0.999998 0.500000 0.365610 O
  atom_frac 0.826389 0.562500 0.380194 O
  atom_frac 0.874999 0.500000 0.380195 Ti
  atom_frac 0.999999 0.562500 0.380195 Ti
  atom_frac 0.923610 0.562500 0.380195 O
  atom_frac 0.750000 0.500000 0.394779 O
  atom_frac 0.874998 0.500000 0.403114 O
  atom_frac 0.951388 0.562500 0.417699 O
  atom_frac 0.999999 0.500000 0.417699 Ti
  atom_frac 0.874999 0.562500 0.417699 Ti
  atom_frac 0.798609 0.562500 0.417699 O
  atom_frac 0.875000 0.500000 0.432283 O
  atom_frac 0.999997 0.500000 0.440619 O
  atom_frac 0.826388 0.562500 0.455203 O
  atom_frac 0.874998 0.500000 0.455203 Ti
  atom_frac 0.999998 0.562500 0.455203 Ti
  atom_frac 0.923608 0.562500 0.455204 O
  atom_frac 0.999999 0.500000 0.469788 O
  atom_frac 0.874996 0.500000 0.478123 O
  atom_frac 0.951387 0.562500 0.492707 O
  atom_frac 0.999997 0.500000 0.492708 Ti
  atom_frac 0.874997 0.562500 0.492708 Ti
  atom_frac 0.798608 0.562500 0.492708 O
  atom_frac 0.874998 0.500000 0.507292 O
  atom_frac 0.999996 0.500000 0.515628 O
  atom_frac 0.826386 0.562500 0.530212 O
  atom_frac 0.874997 0.500000 0.530212 Ti
  atom_frac 0.999997 0.562500 0.530212 Ti
  atom_frac 0.923607 0.562500 0.530212 O
  atom_frac 0.999998 0.500000 0.544797 O
  atom_frac 0.874995 0.500000 0.553132 O
  atom_frac 0.951386 0.562500 0.567716 O
  atom_frac 0.999996 0.500000 0.567717 Ti
  atom_frac 0.874996 0.562500 0.567717 Ti
  atom_frac 0.798606 0.562500 0.567717 O
  atom_frac 0.874997 0.500000 0.582301 O
  atom_frac 0.999994 0.500000 0.590636 O
  atom_frac 0.826385 0.562500 0.605221 O
  atom_frac 0.874995 0.500000 0.605221 Ti
  atom_frac 0.999995 0.562500 0.605221 Ti
  atom_frac 0.923606 0.562500 0.605221 O
  atom_frac 0.999996 0.500000 0.619805 O
  atom_frac 0.874994 0.500000 0.628141 O
  atom_frac 0.951384 0.562500 0.642725 O
  atom_frac 0.999995 0.500000 0.642725 Ti
  atom_frac 0.874995 0.562500 0.642725 Ti
  atom_frac 0.798605 0.562500 0.642726 O
  atom_frac 0.874995 0.500000 0.657310 O
  atom_frac 0.999998 0.625000 0.365610 O
  atom_frac 0.826389 0.687500 0.380194 O
  atom_frac 0.874999 0.625000 0.380195 Ti
  atom_frac 0.999999 0.687500 0.380195 Ti
  atom_frac 0.923610 0.687500 0.380195 O
  atom_frac 0.750000 0.625000 0.394779 O
  atom_frac 0.874998 0.625000 0.403114 O
  atom_frac 0.951388 0.687500 0.417699 O
  atom_frac 0.999999 0.625000 0.417699 Ti
  atom_frac 0.874999 0.687500 0.417699 Ti
  atom_frac 0.798609 0.687500 0.417699 O
  atom_frac 0.875000 0.625000 0.432283 O
  atom_frac 0.999997 0.625000 0.440619 O
  atom_frac 0.826388 0.687500 0.455203 O
  atom_frac 0.874998 0.625000 0.455203 Ti
  atom_frac 0.999998 0.687500 0.455203 Ti
  atom_frac 0.923608 0.687500 0.455204 O
  atom_frac 0.999999 0.625000 0.469788 O
  atom_frac 0.874996 0.625000 0.478123 O
  atom_frac 0.951387 0.687500 0.492707 O
  atom_frac 0.999997 0.625000 0.492708 Ti
  atom_frac 0.874997 0.687500 0.492708 Ti
  atom_frac 0.798608 0.687500 0.492708 O
  atom_frac 0.874998 0.625000 0.507292 O
  atom_frac 0.999996 0.625000 0.515628 O
  atom_frac 0.826386 0.687500 0.530212 O
  atom_frac 0.874997 0.625000 0.530212 Ti
  atom_frac 0.999997 0.687500 0.530212 Ti
  atom_frac 0.923607 0.687500 0.530212 O
  atom_frac 0.999998 0.625000 0.544797 O
  atom_frac 0.874995 0.625000 0.553132 O
  atom_frac 0.951386 0.687500 0.567716 O
  atom_frac 0.999996 0.625000 0.567717 Ti
  atom_frac 0.874996 0.687500 0.567717 Ti
  atom_frac 0.798606 0.687500 0.567717 O
  atom_frac 0.874997 0.625000 0.582301 O
  atom_frac 0.999994 0.625000 0.590636 O
  atom_frac 0.826385 0.687500 0.605221 O
  atom_frac 0.874995 0.625000 0.605221 Ti
  atom_frac 0.999995 0.687500 0.605221 Ti
  atom_frac 0.923606 0.687500 0.605221 O
  atom_frac 0.999996 0.625000 0.619805 O
  atom_frac 0.874994 0.625000 0.628141 O
  atom_frac 0.951384 0.687500 0.642725 O
  atom_frac 0.999995 0.625000 0.642725 Ti
  atom_frac 0.874995 0.687500 0.642725 Ti
  atom_frac 0.798605 0.687500 0.642726 O
  atom_frac 0.874995 0.625000 0.657310 O
  atom_frac 0.999998 0.750000 0.365610 O
  atom_frac 0.826389 0.812500 0.380194 O
  atom_frac 0.874999 0.750000 0.380195 Ti
  atom_frac 0.999999 0.812500 0.380195 Ti
  atom_frac 0.923610 0.812500 0.380195 O
  atom_frac 0.750000 0.750000 0.394779 O
  atom_frac 0.874998 0.750000 0.403114 O
  atom_frac 0.951388 0.812500 0.417699 O
  atom_frac 0.999999 0.750000 0.417699 Ti
  atom_frac 0.874999 0.812500 0.417699 Ti
  atom_frac 0.798609 0.812500 0.417699 O
  atom_frac 0.875000 0.750000 0.432283 O
  atom_frac 0.999997 0.750000 0.440619 O
  atom_frac 0.826388 0.812500 0.455203 O
  atom_frac 0.874998 0.750000 0.455203 Ti
  atom_frac 0.999998 0.812500 0.455203 Ti
  atom_frac 0.923608 0.812500 0.455204 O
  atom_frac 0.999999 0.750000 0.469788 O
  atom_frac 0.874996 0.750000 0.478123 O
  atom_frac 0.951387 0.812500 0.492707 O
  atom_frac 0.999997 0.750000 0.492708 Ti
  atom_frac 0.874997 0.812500 0.492708 Ti
  atom_frac 0.798608 0.812500 0.492708 O
  atom_frac 0.874998 0.750000 0.507292 O
  atom_frac 0.999996 0.750000 0.515628 O
  atom_frac 0.826386 0.812500 0.530212 O
  atom_frac 0.874997 0.750000 0.530212 Ti
  atom_frac 0.999997 0.812500 0.530212 Ti
  atom_frac 0.923607 0.812500 0.530212 O
  atom_frac 0.999998 0.750000 0.544797 O
  atom_frac 0.874995 0.750000 0.553132 O
  atom_frac 0.951386 0.812500 0.567716 O
  atom_frac 0.999996 0.750000 0.567717 Ti
  atom_frac 0.874996 0.812500 0.567717 Ti
  atom_frac 0.798606 0.812500 0.567717 O
  atom_frac 0.874997 0.750000 0.582301 O
  atom_frac 0.999994 0.750000 0.590636 O
  atom_frac 0.826385 0.812500 0.605221 O
  atom_frac 0.874995 0.750000 0.605221 Ti
  atom_frac 0.999995 0.812500 0.605221 Ti
  atom_frac 0.923606 0.812500 0.605221 O
  atom_frac 0.999996 0.750000 0.619805 O
  atom_frac 0.874994 0.750000 0.628141 O
  atom_frac 0.951384 0.812500 0.642725 O
  atom_frac 0.999995 0.750000 0.642725 Ti
  atom_frac 0.874995 0.812500 0.642725 Ti
  atom_frac 0.798605 0.812500 0.642726 O
  atom_frac 0.874995 0.750000 0.657310 O
  atom_frac 0.999998 0.875000 0.365610 O
  atom_frac 0.826389 0.937500 0.380194 O
  atom_frac 0.874999 0.875000 0.380195 Ti
  atom_frac 0.999999 0.937500 0.380195 Ti
  atom_frac 0.923610 0.937500 0.380195 O
  atom_frac 0.750000 0.875000 0.394779 O
  atom_frac 0.874998 0.875000 0.403114 O
  atom_frac 0.951388 0.937500 0.417699 O
  atom_frac 0.999999 0.875000 0.417699 Ti
  atom_frac 0.874999 0.937500 0.417699 Ti
  atom_frac 0.798609 0.937500 0.417699 O
  atom_frac 0.875000 0.875000 0.432283 O
  atom_frac 0.999997 0.875000 0.440619 O
  atom_frac 0.826388 0.937500 0.455203 O
  atom_frac 0.874998 0.875000 0.455203 Ti
  atom_frac 0.999998 0.937500 0.455203 Ti
  atom_frac 0.923608 0.937500 0.455204 O
  atom_frac 0.999999 0.875000 0.469788 O
  atom_frac 0.874996 0.875000 0.478123 O
  atom_frac 0.951387 0.937500 0.492707 O
  atom_frac 0.999997 0.875000 0.492708 Ti
  atom_frac 0.874997 0.937500 0.492708 Ti
  atom_frac 0.798608 0.937500 0.492708 O
  atom_frac 0.874998 0.875000 0.507292 O
  atom_frac 0.999996 0.875000 0.515628 O
  atom_frac 0.826386 0.937500 0.530212 O
  atom_frac 0.874997 0.875000 0.530212 Ti
  atom_frac 0.999997 0.937500 0.530212 Ti
  atom_frac 0.923607 0.937500 0.530212 O
  atom_frac 0.999998 0.875000 0.544797 O
  atom_frac 0.874995 0.875000 0.553132 O
  atom_frac 0.951386 0.937500 0.567716 O
  atom_frac 0.999996 0.875000 0.567717 Ti
  atom_frac 0.874996 0.937500 0.567717 Ti
  atom_frac 0.798606 0.937500 0.567717 O
  atom_frac 0.874997 0.875000 0.582301 O
  atom_frac 0.999994 0.875000 0.590636 O
  atom_frac 0.826385 0.937500 0.605221 O
  atom_frac 0.874995 0.875000 0.605221 Ti
  atom_frac 0.999995 0.937500 0.605221 Ti
  atom_frac 0.923606 0.937500 0.605221 O
  atom_frac 0.999996 0.875000 0.619805 O
  atom_frac 0.874994 0.875000 0.628141 O
  atom_frac 0.951384 0.937500 0.642725 O
  atom_frac 0.999995 0.875000 0.642725 Ti
  atom_frac 0.874995 0.937500 0.642725 Ti
  atom_frac 0.798605 0.937500 0.642726 O
  atom_frac 0.874995 0.875000 0.657310 O
  
  -----------------------------------------------------------------------
  Completed first pass over input file geometry.in .
  -----------------------------------------------------------------------
  

  Basic array size parameters:
  | Number of species                 :        3
  | Number of atoms                   :     1536
  | Number of lattice vectors         :        3
  | Max. basis fn. angular momentum   :        4
  | Max. atomic/ionic basis occupied n:        4
[...]
  15513       0.00000           0.551916           15.01841
  15514       0.00000           0.551916           15.01841
  15515       0.00000           0.551938           15.01899
  15516       0.00000           0.551938           15.01899
  15517       0.00000           0.552719           15.04026
  15518       0.00000           0.552720           15.04027
  15519       0.00000           0.554780           15.09633
  15520       0.00000           0.554780           15.09633
  15521       0.00000           0.556585           15.14545
  15522       0.00000           0.556585           15.14545
  15523       0.00000           0.556772           15.15053
  15524       0.00000           0.556772           15.15053
  15525       0.00000           0.557002           15.15681
  15526       0.00000           0.557002           15.15681
  15527       0.00000           0.557002           15.15681
  15528       0.00000           0.557002           15.15681
  15529       0.00000           0.557388           15.16730
  15530       0.00000           0.557392           15.16741
  15531       0.00000           0.557543           15.17152
  15532       0.00000           0.557581           15.17256
  15533       0.00000           0.557581           15.17256
  15534       0.00000           0.557583           15.17261
  15535       0.00000           0.557583           15.17261
  15536       0.00000           0.558645           15.20151
  15537       0.00000           0.558645           15.20151
  15538       0.00000           0.559012           15.21149
  15539       0.00000           0.559206           15.21676
  15540       0.00000           0.559206           15.21676
  15541       0.00000           0.560102           15.24115
  15542       0.00000           0.560102           15.24115
  15543       0.00000           0.560102           15.24115
  15544       0.00000           0.560102           15.24115
  15545       0.00000           0.560517           15.25243
  15546       0.00000           0.560530           15.25279
  15547       0.00000           0.560530           15.25279
  15548       0.00000           0.560628           15.25546
  15549       0.00000           0.560629           15.25550
  15550       0.00000           0.561393           15.27627
  15551       0.00000           0.561393           15.27627
  15552       0.00000           0.561570           15.28109
  15553       0.00000           0.561570           15.28109
  15554       0.00000           0.561915           15.29048
  15555       0.00000           0.561915           15.29048
  15556       0.00000           0.561915           15.29048
  15557       0.00000           0.561915           15.29048
  15558       0.00000           0.562437           15.30470
  15559       0.00000           0.562437           15.30470
  15560       0.00000           0.562563           15.30811
  15561       0.00000           0.562563           15.30811
  15562       0.00000           0.562673           15.31112
  15563       0.00000           0.564798           15.36894
  15564       0.00000           0.564798           15.36894
  15565       0.00000           0.564798           15.36894
  15566       0.00000           0.564798           15.36894
  15567       0.00000           0.565685           15.39308
  15568       0.00000           0.565686           15.39310
  15569       0.00000           0.566064           15.40338
  15570       0.00000           0.566064           15.40338
  15571       0.00000           0.566066           15.40343
  15572       0.00000           0.566066           15.40343
  15573       0.00000           0.567437           15.44075
  15574       0.00000           0.568281           15.46370
  15575       0.00000           0.568281           15.46373
  15576       0.00000           0.569103           15.48607
  15577       0.00000           0.569103           15.48607
  15578       0.00000           0.569321           15.49200
  15579       0.00000           0.569321           15.49200
  15580       0.00000           0.569321           15.49200
  15581       0.00000           0.569321           15.49200
  15582       0.00000           0.569647           15.50088
  15583       0.00000           0.569647           15.50088
  15584       0.00000           0.570236           15.51692
  15585       0.00000           0.570236           15.51692
  15586       0.00000           0.571122           15.54101
  15587       0.00000           0.571122           15.54101
  15588       0.00000           0.571415           15.54900
  15589       0.00000           0.571415           15.54900
  15590       0.00000           0.571415           15.54900
  15591       0.00000           0.571415           15.54900
  15592       0.00000           0.573100           15.59483
  15593       0.00000           0.573100           15.59483
  15594       0.00000           0.573100           15.59483
  15595       0.00000           0.573100           15.59483
  15596       0.00000           0.573292           15.60008
  15597       0.00000           0.573292           15.60008
  15598       0.00000           0.573292           15.60008
  15599       0.00000           0.573292           15.60008
  15600       0.00000           0.573589           15.60815
  15601       0.00000           0.573947           15.61788
  15602       0.00000           0.573947           15.61788
  15603       0.00000           0.574743           15.63955
  15604       0.00000           0.574743           15.63955
  15605       0.00000           0.574838           15.64214
  15606       0.00000           0.574838           15.64214
  15607       0.00000           0.574838           15.64214
  15608       0.00000           0.574838           15.64214
  15609       0.00000           0.576047           15.67502
  15610       0.00000           0.576047           15.67502
  15611       0.00000           0.576051           15.67513
  15612       0.00000           0.576051           15.67513
  15613       0.00000           0.576274           15.68122
  15614       0.00000           0.576274           15.68122
  15615       0.00000           0.576843           15.69669
  15616       0.00000           0.576843           15.69669

  What follows are estimated values for band gap, HOMO, LUMO, etc.
  | They are estimated on a discrete k-point grid and not necessarily exact.
  | For converged numbers, create a DOS and/or band structure plot on a denser k-grid.

  Highest occupied state (VBM) at    -10.76639426 eV (relative to internal zero)
  | Occupation number:      2.00000000
  | K-point:       1 at    0.000000    0.000000    0.000000 (in units of recip. lattice)

  Lowest unoccupied state (CBM) at    -5.35901040 eV (relative to internal zero)
  | Occupation number:      0.00000000
  | K-point:       1 at    0.000000    0.000000    0.000000 (in units of recip. lattice)

  ESTIMATED overall HOMO-LUMO gap:      5.40738386 eV between HOMO at k-point 1 and LUMO at k-point 1
  | This appears to be a direct band gap.
  The gap value is above 0.2 eV. Unless you are using a very sparse k-point grid,
  this system is most likely an insulator or a semiconductor.

  Total energy components:
  | Sum of eigenvalues            :     -305525.79045220 Ha    -8313779.75866117 eV
  | XC energy correction          :      -30292.85431259 Ha     -824310.50630224 eV
  | XC potential correction       :       39168.10608704 Ha     1065818.39487124 eV
  | Free-atom electrostatic energy:     -218954.78854008 Ha    -5958062.93908020 eV
  | Hartree energy correction     :          -8.72379556 Ha        -237.38655526 eV
  | Entropy correction            :           0.00000000 Ha           0.00000000 eV
  | ---------------------------
  | Total energy                  :     -515614.05101338 Ha   -14030572.19572763 eV
  | Total energy, T -> 0          :     -515614.05101338 Ha   -14030572.19572763 eV  <-- do not rely on this value for anything but (periodic) metals
  | Electronic free energy        :     -515614.05101338 Ha   -14030572.19572763 eV

  Derived energy quantities:
  | Kinetic energy                :      518927.47617235 Ha    14120735.08174036 eV
  | Electrostatic energy          :    -1004248.67287314 Ha   -27326996.77116575 eV
  | Energy correction for multipole
  | error in Hartree potential    :           0.27419754 Ha           7.46129464 eV
  | Sum of eigenvalues per atom                           :       -5412.61703038 eV
  | Total energy (T->0) per atom                          :       -9134.48710659 eV  <-- do not rely on this value for anything but (periodic) metals
  | Electronic free energy per atom                       :       -9134.48710659 eV
  Evaluating new KS density using the density matrix
  Evaluating density matrix
  Finished density matrix calculation
  | Time :    35.674 s
  | Time get_set_sparse_local_matrix_scalapack:     3.340295 s
  Time summed over all CPUs for getting density from density matrix: real work     1720.049 s, elapsed     2622.502 s
  Integration grid: deviation in total charge (<rho> - N_e) =   5.820766E-11

  Self-consistency convergence accuracy:
  | Change of charge density      :  0.1218E+02
  | Change of unmixed KS density  :  0.1154E+04
  | Change of sum of eigenvalues  :  0.7409E+03 eV
  | Change of total energy        :  0.5699E+03 eV


------------------------------------------------------------
  End self-consistency iteration #     1       :  max(cpu_time)    wall_clock(cpu1)
  | Time for this iteration                     :     1266.599 s        1266.677 s
  | Charge density update                       :       80.068 s          80.072 s
  | Density mixing & preconditioning            :      159.410 s         159.416 s
  | Hartree multipole update                    :        0.154 s           0.154 s
  | Hartree multipole summation                 :       13.764 s          13.765 s
  | Integration                                 :       76.744 s          76.747 s
  | Solution of K.-S. eqns.                     :      936.418 s         936.482 s
  | Total energy evaluation                     :        0.003 s           0.002 s

  Partial memory accounting:
  | Current value for overall tracked memory usage:
  |   Minimum:     1841.460 MB (on task 39)
  |   Maximum:     1854.076 MB (on task 34)
  |   Average:     1846.250 MB
  | Peak value for overall tracked memory usage:
  |   Minimum:     1884.862 MB (on task 39 after allocating zora_vector2)
  |   Maximum:     1916.985 MB (on task 34 after allocating zora_vector2)
  |   Average:     1902.371 MB
  | Largest tracked array allocation so far:
  |   Minimum:      435.125 MB (ovlp on task  0)
  |   Maximum:      435.125 MB (ovlp on task  0)
  |   Average:      435.125 MB
  Note:  These values currently only include a subset of arrays which are explicitly tracked.
  The "true" memory usage will be greater.
------------------------------------------------------------

------------------------------------------------------------
          Begin self-consistency iteration #    2

  Date     :  20250417, Time     :  130819.297
------------------------------------------------------------
  Pulay mixing of updated and previous charge densities.
  Available memory per node after mixing [GB]:    866.04
  Renormalizing the density to the exact electron count on the 3D integration grid.
  | Formal number of electrons (from input files) :   19456.0000000000
  | Integrated number of electrons on 3D grid     :   19454.8026803183
  | Charge integration error                      :      -1.1973196817
  | Normalization factor for density and gradient :       1.0000615437

  Evaluating partitioned Hartree potential by multipole expansion.
  | Original multipole sum: apparent total charge =  -0.213891E-09
  | Sum of charges compensated after spline to logarithmic grids =   0.233554E-02
  | Analytical far-field extrapolation by fixed multipoles:
  | Hartree multipole sum: apparent total charge =  -0.213869E-09
  Summing up the Hartree potential.
  Time summed over all CPUs for potential: real work        8.396 s, elapsed       13.362 s
  | RMS charge density error from multipole expansion :   0.114842E+00
  | Average real-space part of the electrostatic potential :      0.13704206 eV

  Integrating Hamiltonian matrix: batch-based integration.
  Time summed over all CPUs for integration: real work     3238.214 s, elapsed     4905.715 s => Consider using load balancing!
  | Time get_set_sparse_local_matrix_scalapack:     0.660607 s

  Updating Kohn-Sham eigenvalues and eigenvectors using ELSI and the ELPA eigensolver.
  Starting ELPA eigensolver
  Finished transformation to standard eigenproblem
  | Time :   105.796 s
  Finished solving standard eigenproblem
  | Time :   490.770 s
  Finished back-transformation of eigenvectors
  | Time :    51.506 s

  Obtaining occupation numbers and electronic chemical potential using ELSI.
  | Note that, for insulating systems, the printed 'chemical potential' value is not uniquely defined.
  | It can be anywhere in the energy gap, as long as it correctly separates occupied and unoccupied states.
  | In systems with a gap, the physically relevant chemical potential is the VBM or HOMO.

  | Chemical potential (Fermi level):    -7.36182449 eV
  What follows are estimated values for band gap, HOMO, LUMO, etc.
  | They are estimated on a discrete k-point grid and not necessarily exact.
  | For converged numbers, create a DOS and/or band structure plot on a denser k-grid.

  Highest occupied state (VBM) at     -7.90794735 eV (relative to internal zero)
  | Occupation number:      2.00000000
  | K-point:       1 at    0.000000    0.000000    0.000000 (in units of recip. lattice)

  Lowest unoccupied state (CBM) at    -7.16741092 eV (relative to internal zero)
  | Occupation number:      0.00000000
  | K-point:       1 at    0.000000    0.000000    0.000000 (in units of recip. lattice)

  ESTIMATED overall HOMO-LUMO gap:      0.74053643 eV between HOMO at k-point 1 and LUMO at k-point 1
  | This appears to be a direct band gap.
  The gap value is above 0.2 eV. Unless you are using a very sparse k-point grid,
  this system is most likely an insulator or a semiconductor.

  Checking to see if s.c.f. parameters should be adjusted.
  The system likely has a gap. Increased the default Pulay mixing parameter (charge_mix_param). Value:   0.200000 .
  Kept the default occupation width. Value:   0.010000 eV.

  Total energy components:
  | Sum of eigenvalues            :     -305413.02036922 Ha    -8310711.12857305 eV
  | XC energy correction          :      -30362.27756817 Ha     -826199.60920330 eV
  | XC potential correction       :       39255.19766182 Ha     1068188.27719922 eV
  | Free-atom electrostatic energy:     -218954.78854008 Ha    -5958062.93908020 eV
  | Hartree energy correction     :         -71.95813835 Ha       -1958.08057058 eV
  | Entropy correction            :          -0.00000000 Ha          -0.00000000 eV
  | ---------------------------
  | Total energy                  :     -515546.84695400 Ha   -14028743.48022791 eV
  | Total energy, T -> 0          :     -515546.84695400 Ha   -14028743.48022791 eV  <-- do not rely on this value for anything but (periodic) metals
  | Electronic free energy        :     -515546.84695400 Ha   -14028743.48022791 eV

  Derived energy quantities:
  | Kinetic energy                :      519273.56228233 Ha    14130152.56394926 eV
  | Electrostatic energy          :    -1004458.13166816 Ha   -27332696.43497387 eV
  | Energy correction for multipole
  | error in Hartree potential    :           2.31210125 Ha          62.91547609 eV
  | Sum of eigenvalues per atom                           :       -5410.61922433 eV
  | Total energy (T->0) per atom                          :       -9133.29653661 eV  <-- do not rely on this value for anything but (periodic) metals
  | Electronic free energy per atom                       :       -9133.29653661 eV
  Evaluating new KS density using the density matrix
  Evaluating density matrix
  Finished density matrix calculation
  | Time :    35.348 s
  | Time get_set_sparse_local_matrix_scalapack:     3.216470 s
  Time summed over all CPUs for getting density from density matrix: real work     1743.693 s, elapsed     2546.438 s
  Integration grid: deviation in total charge (<rho> - N_e) =   4.365575E-11

  Self-consistency convergence accuracy:
  | Change of charge density      :  0.1077E+02
  | Change of unmixed KS density  :  0.1047E+01
  | Change of sum of eigenvalues  :  0.3069E+04 eV
  | Change of total energy        :  0.1829E+04 eV


------------------------------------------------------------
  End self-consistency iteration #     2       :  max(cpu_time)    wall_clock(cpu1)
  | Time for this iteration                     :     1262.754 s        1262.827 s
  | Charge density update                       :       78.432 s          78.436 s
  | Density mixing & preconditioning            :      158.877 s         158.882 s
  | Hartree multipole update                    :        0.107 s           0.108 s
  | Hartree multipole summation                 :       14.806 s          14.807 s
  | Integration                                 :       76.759 s          76.762 s
  | Solution of K.-S. eqns.                     :      933.746 s         933.805 s
  | Total energy evaluation                     :        0.002 s           0.012 s

  Partial memory accounting:
  | Current value for overall tracked memory usage:
  |   Minimum:     1841.460 MB (on task 39)
  |   Maximum:     1854.076 MB (on task 34)
  |   Average:     1846.251 MB
  | Peak value for overall tracked memory usage:
  |   Minimum:     1884.862 MB (on task 39 after allocating zora_vector2)
  |   Maximum:     1916.986 MB (on task 34 after allocating zora_vector2)
  |   Average:     1902.371 MB
  | Largest tracked array allocation so far:
  |   Minimum:      435.125 MB (ovlp on task  0)
  |   Maximum:      435.125 MB (ovlp on task  0)
  |   Average:      435.125 MB
  Note:  These values currently only include a subset of arrays which are explicitly tracked.
  The "true" memory usage will be greater.
------------------------------------------------------------

------------------------------------------------------------
          Begin self-consistency iteration #    3

  Date     :  20250417, Time     :  132922.124
------------------------------------------------------------
  Pulay mixing of updated and previous charge densities.
  Available memory per node after mixing [GB]:    865.29
  Renormalizing the density to the exact electron count on the 3D integration grid.
  | Formal number of electrons (from input files) :   19456.0000000000
  | Integrated number of electrons on 3D grid     :   19456.1384625643
  | Charge integration error                      :       0.1384625643
  | Normalization factor for density and gradient :       0.9999928833

  Evaluating partitioned Hartree potential by multipole expansion.
  | Original multipole sum: apparent total charge =  -0.107523E-09
  | Sum of charges compensated after spline to logarithmic grids =   0.250923E-02
  | Analytical far-field extrapolation by fixed multipoles:
  | Hartree multipole sum: apparent total charge =  -0.107454E-09
  Summing up the Hartree potential.
  Time summed over all CPUs for potential: real work        8.327 s, elapsed       13.117 s
  | RMS charge density error from multipole expansion :   0.120937E+00
  | Average real-space part of the electrostatic potential :      0.12495902 eV

  Integrating Hamiltonian matrix: batch-based integration.
  Time summed over all CPUs for integration: real work     3178.392 s, elapsed     4843.729 s => Consider using load balancing!
  | Time get_set_sparse_local_matrix_scalapack:     0.623423 s

  Updating Kohn-Sham eigenvalues and eigenvectors using ELSI and the ELPA eigensolver.
  Starting ELPA eigensolver
  Finished transformation to standard eigenproblem
  | Time :    99.949 s
