------------------------------------------------------------
          Invoking FHI-aims ...

          When using FHI-aims, please cite the following reference:

            Volker Blum, Ralf Gehrke, Felix Hanke, Paula Havu,
            Ville Havu, Xinguo Ren, Karsten Reuter, and Matthias Scheffler,
            'Ab Initio Molecular Simulations with Numeric Atom-Centered Orbitals',
            Computer Physics Communications 180, 2175-2196 (2009)

          In addition, many other developments in FHI-aims are likely important for
          your particular application. If so, please cite them. A partial list of references
          is written at the end of this file. Thank you for giving credit to the authors
          of these developments.

          For general information about FHI-aims please find us at

            https://fhi-aims.org

          Online tutorials can be found at

            https://fhi-aims-club.gitlab.io/tutorials/tutorials-overview/

          For any questions about FHI-aims, please visit our slack channel at

            https://fhi-aims.slack.com

          and our main development and support site at

            https://aims-git.rz-berlin.mpg.de .

          The latter site, in particular, has a wiki to collect information, as well
          as an issue tracker to log discussions, suggest improvements, and report issues
          or bugs. https://aims-git.rz-berlin.mpg.de is also the main development site
          of the project and all new and updated code versions can be obtained there.
          Please send an email to aims-coordinators@fhi-berlin.mpg.de and we will add
          you to these sites. They are for you and everyone is welcome there.

------------------------------------------------------------



  Date     :  20241021, Time     :  120156.785
  Time zero on CPU 1             :   0.385953000000000E+00  s.
  Internal wall clock time zero  :           498744116.785  s.

  FHI-aims created a unique identifier for this run for later identification
  aims_uuid : 6489131F-13F4-4179-AFFB-0ED1DF92A625

  Build configuration of the current instance of FHI-aims
  -------------------------------------------------------
  FHI-aims version      : 240605
  Commit number         : b001b2e18
  CMake host system     : Linux-6.5.0-41-generic
  CMake version         : 3.22.1
  Fortran compiler      : /opt/intel/oneapi/mpi/2021.12/bin/mpiifort (IntelLLVM) version 2024.1.0
  Fortran compiler flags: -fc=ifx -O3 -ip -fp-model precise
  C compiler            : /opt/intel/oneapi/mpi/2021.12/bin/mpiicc (IntelLLVM) version 2024.1.0
  C compiler flags      : -cc=icx -O3 -ip -fp-model precise -std=gnu99
  C++ compiler          : /opt/intel/oneapi/mpi/2021.12/bin/mpiicpc (IntelLLVM) version 2024.1.0
  C++ compiler flags    : -cxx=icpx -O3 -ip -fp-model precise -std=c++11
  HIP compiler          :
  HIP compiler flags    :
  HIP GPU arch          :
  Using MPI
  Using ScaLAPACK
  Using LibXC
  Using i-PI
  Using RLSY
  Linking against: /opt/intel/oneapi/mkl/2024.1/lib/intel64/libmkl_intel_lp64.so
                   /opt/intel/oneapi/mkl/2024.1/lib/intel64/libmkl_sequential.so
                   /opt/intel/oneapi/mkl/2024.1/lib/intel64/libmkl_core.so
                   /opt/intel/oneapi/mkl/2024.1/lib/intel64/libmkl_blacs_intelmpi_lp64.so
                   /opt/intel/oneapi/mkl/2024.1/lib/intel64/libmkl_scalapack_lp64.so
                   /opt/intel/oneapi/mkl/2024.1/lib/intel64/libmkl_core.so

  Using       32 parallel tasks.
  Task        0 on host RSL-arvutus reporting.
  Task        1 on host RSL-arvutus reporting.
  Task        2 on host RSL-arvutus reporting.
  Task        3 on host RSL-arvutus reporting.
  Task        4 on host RSL-arvutus reporting.
  Task        5 on host RSL-arvutus reporting.
  Task        6 on host RSL-arvutus reporting.
  Task        7 on host RSL-arvutus reporting.
  Task        8 on host RSL-arvutus reporting.
  Task        9 on host RSL-arvutus reporting.
  Task       10 on host RSL-arvutus reporting.
  Task       11 on host RSL-arvutus reporting.
  Task       12 on host RSL-arvutus reporting.
  Task       13 on host RSL-arvutus reporting.
  Task       14 on host RSL-arvutus reporting.
  Task       15 on host RSL-arvutus reporting.
  Task       16 on host RSL-arvutus reporting.
  Task       17 on host RSL-arvutus reporting.
  Task       18 on host RSL-arvutus reporting.
  Task       19 on host RSL-arvutus reporting.
  Task       20 on host RSL-arvutus reporting.
  Task       21 on host RSL-arvutus reporting.
  Task       22 on host RSL-arvutus reporting.
  Task       23 on host RSL-arvutus reporting.
  Task       24 on host RSL-arvutus reporting.
  Task       25 on host RSL-arvutus reporting.
  Task       26 on host RSL-arvutus reporting.
  Task       27 on host RSL-arvutus reporting.
  Task       28 on host RSL-arvutus reporting.
  Task       29 on host RSL-arvutus reporting.
  Task       30 on host RSL-arvutus reporting.
  Task       31 on host RSL-arvutus reporting.

  Memory overcommitment is allowed on your operating system.

  Obtaining array dimensions for all initial allocations:
  
  -----------------------------------------------------------------------
  Parsing control.in (first pass over file, find array dimensions only).
  The contents of control.in will be repeated verbatim below
  unless switched off by setting 'verbatim_writeout .false.' .
  in the first line of control.in .
  -----------------------------------------------------------------------
  
    xc              pbe
    relativistic    zora scalar 1.0e-12
    KS_method	  serial
    k_grid          4 4 6
  
    spin		  collinear
    default_initial_moment	0.0
  
    output          Mulliken
  
  
  ################################################################################
  #
  #  FHI-aims code project
  #  VB, Fritz-Haber Institut, 2009
  #
  #  Suggested "light" defaults for Ti atom (to be pasted into control.in file)
  #  Be sure to double-check any results obtained with these settings for post-processing,
  #  e.g., with the "tight" defaults and larger basis sets.
  #
  ################################################################################
    species        Ti
  #     global species definitions
      nucleus             22
      mass                47.867
  #
      l_hartree           4
  #
      cut_pot             3.5          1.5  1.0
      basis_dep_cutoff    1e-4
  #
      radial_base         48 5.0
      radial_multiplier   1
      angular_grids       specified
        division   0.5171   50
        division   0.9824  110
        division   1.2917  194
        division   1.4940  302
  #      division   1.6934  434
  #      division   1.8425  590
  #      division   2.1901  770
  #      division   2.2896  974
  #      division   2.8244 1202
  #      outer_grid  974
        outer_grid  302
  ################################################################################
  #
  #  Definition of "minimal" basis
  #
  ################################################################################
  #     valence basis states
      valence      4  s   2.
      valence      3  p   6.
      valence      3  d   2.
  #     ion occupancy
      ion_occ      4  s   1.
      ion_occ      3  p   6.
      ion_occ      3  d   1.
  ################################################################################
  #
  #  Suggested additional basis functions. For production calculations,
  #  uncomment them one after another (the most important basis functions are
  #  listed first).
  #
  #  Constructed for dimers: 1.6 A, 1.85 A, 2.5 A, 3.25 A, 4.25 A
  #
  ################################################################################
  #  "First tier" - improvements: -396.25 meV to -19.41 meV
       hydro 4 f 8
       hydro 3 d 2.7
       ionic 4 p auto
  #     hydro 5 g 11.6
       ionic 4 s auto
  #  "Second tier" - improvements: -16.30 meV to -2.03 meV
  #     hydro 3 d 4.4
  #     hydro 6 h 16
  #     hydro 4 f 9.4
  #     hydro 4 p 4.5
  #     hydro 1 s 0.5
  #  "Third tier" - improvements: -6.28 meV to -0.37 meV
  #     hydro 4 d 6.4
  #     hydro 4 f 10
  #     hydro 5 g 12
  #     hydro 2 p 1.7
  #     hydro 6 h 16.4
  #     hydro 4 s 3.8
  #  Further basis functions: -0.45 meV and smaller improvements
  #     hydro 3 d 8.8
  #     hydro 5 p 18
  #     hydro 4 f 22.4
  #     hydro 5 f 7.2  # -0.16 meV
  #     hydro 3 d 2.1  # -0.11 meV
  #     hydro 5 g 7.4  # -0.09 meV
  
  
  ################################################################################
  #
  #  FHI-aims code project
  #  VB, Fritz-Haber Institut, 2009
  #
  #  Suggested "light" defaults for O atom (to be pasted into control.in file)
  #  Be sure to double-check any results obtained with these settings for post-processing,
  #  e.g., with the "tight" defaults and larger basis sets.
  #
  ################################################################################
    species        O
  #     global species definitions
      nucleus             8
      mass                15.9994
  #
      l_hartree           4
  #
      cut_pot             3.5  1.5  1.0
      basis_dep_cutoff    1e-4
  #
      radial_base         36 5.0
      radial_multiplier   1
       angular_grids specified
        division   0.2659   50
        division   0.4451  110
        division   0.6052  194
        division   0.7543  302
  #      division   0.8014  434
  #      division   0.8507  590
  #      division   0.8762  770
  #      division   0.9023  974
  #      division   1.2339 1202
  #      outer_grid 974
        outer_grid 302
  ################################################################################
  #
  #  Definition of "minimal" basis
  #
  ################################################################################
  #     valence basis states
      valence      2  s   2.
      valence      2  p   4.
  #     ion occupancy
      ion_occ      2  s   1.
      ion_occ      2  p   3.
  ################################################################################
  #
  #  Suggested additional basis functions. For production calculations,
  #  uncomment them one after another (the most important basis functions are
  #  listed first).
  #
  #  Constructed for dimers: 1.0 A, 1.208 A, 1.5 A, 2.0 A, 3.0 A
  #
  ################################################################################
  #  "First tier" - improvements: -699.05 meV to -159.38 meV
       hydro 2 p 1.8
       hydro 3 d 7.6
       hydro 3 s 6.4
  #  "Second tier" - improvements: -49.91 meV to -5.39 meV
  #     hydro 4 f 11.6
  #     hydro 3 p 6.2
  #     hydro 3 d 5.6
  #     hydro 5 g 17.6
  #     hydro 1 s 0.75
  #  "Third tier" - improvements: -2.83 meV to -0.50 meV
  #     ionic 2 p auto
  #     hydro 4 f 10.8
  #     hydro 4 d 4.7
  #     hydro 2 s 6.8
  #  "Fourth tier" - improvements: -0.40 meV to -0.12 meV
  #     hydro 3 p 5
  #     hydro 3 s 3.3
  #     hydro 5 g 15.6
  #     hydro 4 f 17.6
  #     hydro 4 d 14
  # Further basis functions - -0.08 meV and below
  #     hydro 3 s 2.1
  #     hydro 4 d 11.6
  #     hydro 3 p 16
  #     hydro 2 s 17.2
  
  ################################################################################
  #
  #  "Core" basis functions and numerical settings for O atom.
  #  Based on “tight” defaults (V. Blum, 2009).
  #
  ################################################################################
    species        O1
  #     global species definitions
      nucleus             8.
      mass                15.9994
  #
      l_hartree           6
  #
      cut_pot             4.0  2.0  1.0
      basis_dep_cutoff    1e-4
  #
      radial_base         36 7.0
      radial_multiplier   2
       angular_grids specified
        division   0.1817   50
        division   0.3417  110
        division   0.4949  194
        division   0.6251  302
        division   0.8014  434
  #      division   0.8507  590
  #      division   0.8762  770
  #      division   0.9023  974
  #      division   1.2339 1202
  #      outer_grid 974
        outer_grid  434
  ################################################################################
  #
  #  Definition of "minimal" basis
  #
  ################################################################################
  #     valence basis states
      valence      2  s   2.
      valence      2  p   4.
  #     ion occupancy
      ion_occ      2  s   1.
      ion_occ      2  p   3.
  ################################################################################
  #
  #  Suggested additional basis functions. For production calculations,
  #  uncomment them one after another (the most important basis functions are
  #  listed first).
  #
  #  Constructed for dimers: 1.0 A, 1.208 A, 1.5 A, 2.0 A, 3.0 A
  #
  ################################################################################
  #  "First tier" - improvements: -699.05 meV to -159.38 meV
       hydro 2 p 1.8
       hydro 3 d 7.6
       hydro 3 s 6.4
  #  "Second tier" - improvements: -49.91 meV to -5.39 meV
       hydro 4 f 11.6
       hydro 3 p 6.2
       hydro 3 d 5.6
       hydro 5 g 17.6
       hydro 1 s 0.75
  #  "Third tier" - improvements: -2.83 meV to -0.50 meV
       ionic 2 p auto
       hydro 4 f 10.8
       hydro 4 d 4.7
       hydro 2 s 6.8
  #  "Fourth tier" - improvements: -0.40 meV to -0.12 meV
  #     hydro 3 p 5
  #     hydro 3 s 3.3
  #     hydro 5 g 15.6
  #     hydro 4 f 17.6
  #     hydro 4 d 14
  # Further basis functions - -0.08 meV and below
  #     hydro 3 s 2.1
  #     hydro 4 d 11.6
  #     hydro 3 p 16
  #     hydro 2 s 17.2
  
  # Additional basis functions for atom with a core hole
       hydro 1 s 12.0
       hydro 1 s 10.0
       hydro 1 s 6.0
       hydro 2 s 10.0
       hydro 2 p 8.0
       hydro 2 p 6.0
       hydro 3 d 8.0
  
  -----------------------------------------------------------------------
  Completed first pass over input file control.in .
  -----------------------------------------------------------------------
  
  
  -----------------------------------------------------------------------
  Parsing geometry.in (first pass over file, find array dimensions only).
  The contents of geometry.in will be repeated verbatim below
  unless switched off by setting 'verbatim_writeout .false.' .
  in the first line of geometry.in .
  -----------------------------------------------------------------------
  
  #
  # This is the geometry file that corresponds to the current relaxation step.
  # If you do not want this file to be written, set the "write_restart_geometry" flag to .false.
  #  aims_uuid : 9BA3B050-7FA5-4173-AC7B-B01C22C4F404
  #
  lattice_vector      9.28630678      0.00002283     -0.00000001
  lattice_vector      0.00002292      9.28637558     -0.00000001
  lattice_vector     -0.00000004     -0.00000009      5.94535168
  atom_frac       0.00001042      0.00001109     -0.00006141 Ti
  atom_frac       0.25000609      0.25000588      0.25002440 Ti
  atom_frac       0.15277473      0.15278038     -0.00001470 O1
  atom_frac       0.34722235      0.34721380     -0.00001473 O
  atom_frac       0.09722691      0.40278923      0.25002243 O
  atom_frac       0.40278389      0.09721906      0.25002244 O
  atom_frac       0.00001042      0.00001109      0.49993931 Ti
  atom_frac       0.25000663      0.25000510      0.75002440 Ti
  atom_frac       0.15277470      0.15278039      0.49998928 O
  atom_frac       0.34722234      0.34721383      0.49998931 O
  atom_frac       0.09723020      0.40278554      0.75002244 O
  atom_frac       0.40277938      0.09722317      0.75002242 O
  atom_frac       0.00001086      0.50002681      0.00006322 Ti
  atom_frac       0.25001347      0.75001190      0.24997562 Ti
  atom_frac       0.15276750      0.65277937      0.00001467 O
  atom_frac       0.34722125      0.84721002      0.00001464 O
  atom_frac       0.09723729      0.90278836      0.24997758 O
  atom_frac       0.40278339      0.59722962      0.24997758 O
  atom_frac       0.00001087      0.50002681      0.50005885 Ti
  atom_frac       0.25001336      0.75001136      0.74997562 Ti
  atom_frac       0.15276750      0.65277936      0.50001078 O
  atom_frac       0.34722126      0.84721002      0.50001081 O
  atom_frac       0.09723256      0.90279194      0.74997759 O
  atom_frac       0.40278670      0.59722516      0.74997760 O
  atom_frac       0.50002657      0.00001063      0.00007883 Ti
  atom_frac       0.75001320      0.25001151      0.24997563 Ti
  atom_frac       0.65277432      0.15277314      0.00001464 O
  atom_frac       0.84721396      0.34721674      0.00001470 O
  atom_frac       0.59723558      0.40278585      0.24997759 O
  atom_frac       0.90278353      0.09723140      0.24997759 O
  atom_frac       0.50002657      0.00001063      0.50004326 Ti
  atom_frac       0.75001331      0.25001207      0.74997563 Ti
  atom_frac       0.65277431      0.15277314      0.50001083 O
  atom_frac       0.84721396      0.34721675      0.50001078 O
  atom_frac       0.59723228      0.40279032      0.74997761 O
  atom_frac       0.90278828      0.09722783      0.74997761 O
  atom_frac       0.50001506      0.50000689     -0.00005619 Ti
  atom_frac       0.75000672      0.75000519      0.25002435 Ti
  atom_frac       0.65277571      0.65277678     -0.00001476 O
  atom_frac       0.84722148      0.84721763     -0.00001475 O
  atom_frac       0.59722846      0.90278389      0.25002240 O
  atom_frac       0.90278138      0.59722504      0.25002238 O
  atom_frac       0.50001506      0.50000689      0.49993407 Ti
  atom_frac       0.75000616      0.75000596      0.75002435 Ti
  atom_frac       0.65277572      0.65277676      0.49998926 O
  atom_frac       0.84722151      0.84721763      0.49998925 O
  atom_frac       0.59723295      0.90277978      0.75002238 O
  atom_frac       0.90277807      0.59722873      0.75002239 O
  #
  # What follows is the current estimated Hessian matrix constructed by the BFGS algorithm.
  # This is NOT the true Hessian matrix of the system.
  # If you do not want this information here, switch it off using the "hessian_to_restart_geometry" keyword.
  #
  trust_radius             0.0015435619
  hessian_file
  
  -----------------------------------------------------------------------
  Completed first pass over input file geometry.in .
  -----------------------------------------------------------------------
  

  Basic array size parameters:
  | Number of species                 :        3
  | Number of atoms                   :       48
  | Number of lattice vectors         :        3
  | Max. basis fn. angular momentum   :        4
  | Max. atomic/ionic basis occupied n:        4
  | Max. number of basis fn. types    :        3
  | Max. radial fns per species/type  :       18
  | Max. logarithmic grid size        :     1383
  | Max. radial integration grid size :       73
  | Max. angular integration grid size:      434
  | Max. angular grid division number :        8
  | Radial grid for Hartree potential :     1383
  | Number of spin channels           :        2

------------------------------------------------------------
          Reading file control.in.
------------------------------------------------------------
  XC: Using PBE gradient-corrected functionals.
  Scalar relativistic treatment of kinetic energy: ZORA.
  Threshold value for ZORA:   0.100000E-11
  Kohn-Sham eigenvalues and eigenfunctions calculated by LAPACK via ELSI.
  Found k-point grid:         4         4         6
  Spin treatment: Spin density functional theory - collinear spins.
  Initial spin moment per atom:   0.0000
  Mulliken charge analysis will be performed and summarised to the main output.
  Full Mulliken charge analysis will be written to file 'Mulliken.out'.
 
  Reading configuration options for species Ti                  .
  | Found nuclear charge :  22.0000
  | Found atomic mass :    47.8670000000000      amu
  | Found l_max for Hartree potential  :   4
  | Found cutoff potl. onset [A], width [A], scale factor :    3.50000    1.50000    1.00000
  | Threshold for basis-dependent cutoff potential is   0.100000E-03
  | Found data for basic radial integration grid :    48 points, outermost radius =    5.000 A
  | Found multiplier for basic radial grid :   1
  | Found angular grid specification: user-specified.
  | Specified grid contains     5 separate shells.
  | Check grid settings after all constraints further below.
  | Found free-atom valence shell :  4 s   2.000
  | Found free-atom valence shell :  3 p   6.000
  | Found free-atom valence shell :  3 d   2.000
  | Found free-ion valence shell :  4 s   1.000
  | Found free-ion valence shell :  3 p   6.000
  | Found free-ion valence shell :  3 d   1.000
  | Found hydrogenic basis function :  4 f   8.000
  | Found hydrogenic basis function :  3 d   2.700
  | Found ionic basis function :  4 p , default cutoff radius.
  | Found ionic basis function :  4 s , default cutoff radius.
 | Encountered keyword species, ending the description of species Ti                  .
  Species Ti                  : Missing cutoff potential type.
  Defaulting to exp(1/x)/(1-x)^2 type cutoff potential.
  Species Ti: No 'logarithmic' tag. Using default grid for free atom:
  | Default logarithmic grid data [bohr] : 0.1000E-03 0.1000E+03 0.1012E+01
  | Will include ionic basis functions of  2.0-fold positive Ti                   ion.
  Species Ti: On-site basis accuracy parameter (for Gram-Schmidt orthonormalisation) not specified.
  Using default value basis_acc =  0.1000000E-03.
  Species Ti                  : Using default innermost maximum threshold i_radial=  2 for radial functions.
  Species Ti                  : Default cutoff onset for free atom density etc. : 0.35000000E+01 AA.
  Species Ti                  : Basic radial grid will be enhanced according to radial_multiplier =   1, to contain    48 grid points.
 
  Reading configuration options for species O                   .
  | Found nuclear charge :   8.0000
  | Found atomic mass :    15.9994000000000      amu
  | Found l_max for Hartree potential  :   4
  | Found cutoff potl. onset [A], width [A], scale factor :    3.50000    1.50000    1.00000
  | Threshold for basis-dependent cutoff potential is   0.100000E-03
  | Found data for basic radial integration grid :    36 points, outermost radius =    5.000 A
  | Found multiplier for basic radial grid :   1
  | Found angular grid specification: user-specified.
  | Specified grid contains     5 separate shells.
  | Check grid settings after all constraints further below.
  | Found free-atom valence shell :  2 s   2.000
  | Found free-atom valence shell :  2 p   4.000
  | Found free-ion valence shell :  2 s   1.000
  | Found free-ion valence shell :  2 p   3.000
  | Found hydrogenic basis function :  2 p   1.800
  | Found hydrogenic basis function :  3 d   7.600
  | Found hydrogenic basis function :  3 s   6.400
 | Encountered keyword species, ending the description of species O                   .
  Species O                   : Missing cutoff potential type.
  Defaulting to exp(1/x)/(1-x)^2 type cutoff potential.
  Species O : No 'logarithmic' tag. Using default grid for free atom:
  | Default logarithmic grid data [bohr] : 0.1000E-03 0.1000E+03 0.1012E+01
  Species O : On-site basis accuracy parameter (for Gram-Schmidt orthonormalisation) not specified.
  Using default value basis_acc =  0.1000000E-03.
  Species O                   : Using default innermost maximum threshold i_radial=  2 for radial functions.
  Species O                   : Default cutoff onset for free atom density etc. : 0.35000000E+01 AA.
  Species O                   : Basic radial grid will be enhanced according to radial_multiplier =   1, to contain    36 grid points.
 
  Reading configuration options for species O1                  .
  | Found nuclear charge :   8.0000
  | Found atomic mass :    15.9994000000000      amu
  | Found l_max for Hartree potential  :   6
  | Found cutoff potl. onset [A], width [A], scale factor :    4.00000    2.00000    1.00000
  | Threshold for basis-dependent cutoff potential is   0.100000E-03
  | Found data for basic radial integration grid :    36 points, outermost radius =    7.000 A
  | Found multiplier for basic radial grid :   2
  | Found angular grid specification: user-specified.
  | Specified grid contains     6 separate shells.
  | Check grid settings after all constraints further below.
  | Found free-atom valence shell :  2 s   2.000
  | Found free-atom valence shell :  2 p   4.000
  | Found free-ion valence shell :  2 s   1.000
  | Found free-ion valence shell :  2 p   3.000
  | Found hydrogenic basis function :  2 p   1.800
  | Found hydrogenic basis function :  3 d   7.600
  | Found hydrogenic basis function :  3 s   6.400
  | Found hydrogenic basis function :  4 f  11.600
  | Found hydrogenic basis function :  3 p   6.200
  | Found hydrogenic basis function :  3 d   5.600
  | Found hydrogenic basis function :  5 g  17.600
  | Found hydrogenic basis function :  1 s   0.750
  | Found ionic basis function :  2 p , default cutoff radius.
  | Found hydrogenic basis function :  4 f  10.800
  | Found hydrogenic basis function :  4 d   4.700
  | Found hydrogenic basis function :  2 s   6.800
  | Found hydrogenic basis function :  1 s  12.000
  | Found hydrogenic basis function :  1 s  10.000
  | Found hydrogenic basis function :  1 s   6.000
  | Found hydrogenic basis function :  2 s  10.000
  | Found hydrogenic basis function :  2 p   8.000
  | Found hydrogenic basis function :  2 p   6.000
  | Found hydrogenic basis function :  3 d   8.000
  Species O1                  : Missing cutoff potential type.
  Defaulting to exp(1/x)/(1-x)^2 type cutoff potential.
  Species O1: No 'logarithmic' tag. Using default grid for free atom:
  | Default logarithmic grid data [bohr] : 0.1000E-03 0.1000E+03 0.1012E+01
  | Will include ionic basis functions of  2.0-fold positive O1                   ion.
  Species O1: On-site basis accuracy parameter (for Gram-Schmidt orthonormalisation) not specified.
  Using default value basis_acc =  0.1000000E-03.
  Species O1                  : Using default innermost maximum threshold i_radial=  2 for radial functions.
  Species O1                  : Default cutoff onset for free atom density etc. : 0.40000000E+01 AA.
  Species O1                  : Basic radial grid will be enhanced according to radial_multiplier =   2, to contain    73 grid points.
 
  Finished reading input file 'control.in'.
 
------------------------------------------------------------


------------------------------------------------------------
          Reading geometry description geometry.in.
------------------------------------------------------------
  Found keyword 'hessian_file', indicating that this is the continuation of a structure optimization.
  However, the control.in file does not request the geometry to be optimized.
  Ignoring the request for a file 'hessian.aims' to be present.
  | The smallest distance between any two atoms is         1.95910904 AA.
  | The first atom of this pair is atom number                     14 .
  | The second atom of this pair is atom number                    16 .
  | Wigner-Seitz cell of the first atom image           0     0     0 .
  | (The Wigner-Seitz cell of the second atom is 0 0 0  by definition.)

  Symmetry information by spglib:
  | Precision set to  0.1E-04
  | Number of Operations  : 1
  | Space group           : 1
  | International         : P1
  | Schoenflies           : C1^1
  Input structure read successfully.
  The structure contains       48 atoms,  and a total of        608.000 electrons.

  Input geometry:
  | Unit cell:
  |        9.28630678        0.00002283       -0.00000001
  |        0.00002292        9.28637558       -0.00000001
  |       -0.00000004       -0.00000009        5.94535168
  | Atomic structure:
  |       Atom                x [A]            y [A]            z [A]
  |    1: Species Ti            0.00009676        0.00010299       -0.00036510
  |    2: Species Ti            2.32163897        2.32165418        1.48648298
  |    3: Species O1            1.41871651        1.41877948       -0.00008740
  |    4: Species O             3.22442122        3.22436568       -0.00008758
  |    5: Species O             0.90288814        3.74045427        1.48647127
  |    6: Species O             3.74037699        0.90282188        1.48647133
  |    7: Species Ti            0.00009674        0.00010294        2.97231502
  |    8: Species Ti            2.32164396        2.32164690        4.45915882
  |    9: Species O             1.41871621        1.41877953        2.97261210
  |   10: Species O             3.22442111        3.22436591        2.97261228
  |   11: Species O             0.90291867        3.74041995        4.45914717
  |   12: Species O             3.74033509        0.90286000        4.45914705
  |   13: Species Ti            0.00011231        4.64343676        0.00037586
  |   14: Species Ti            2.32171896        6.96489788        1.48619296
  |   15: Species O             1.41866083        6.06195789        0.00008721
  |   16: Species O             3.22442247        7.86751837        0.00008703
  |   17: Species O             0.90299599        8.38363398        1.48620462
  |   18: Species O             3.74038380        5.54610773        1.48620462
  |   19: Species Ti            0.00011238        4.64343671        2.97302572
  |   20: Species Ti            2.32171792        6.96489282        4.45886880
  |   21: Species O             1.41866081        6.06195775        2.97273992
  |   22: Species O             3.22442254        7.86751832        2.97274010
  |   23: Species O             0.90295204        8.38366718        4.45888051
  |   24: Species O             3.74041452        5.54606627        4.45888057
  |   25: Species Ti            4.64340013        0.00011013        0.00046867
  |   26: Species Ti            6.96485838        2.32171788        1.48619302
  |   27: Species O             6.06186610        1.41872366        0.00008703
  |   28: Species O             7.86749670        3.22440440        0.00008738
  |   29: Species O             5.54612204        3.74043429        1.48620467
  |   30: Species O             8.38352703        0.90294789        1.48620467
  |   31: Species Ti            4.64340011        0.00011008        2.97293303
  |   32: Species Ti            6.96485939        2.32172304        4.45886886
  |   33: Species O             6.06186598        1.41872361        2.97274022
  |   34: Species O             7.86749668        3.22440445        2.97273992
  |   35: Species O             5.54609137        3.74047576        4.45888063
  |   36: Species O             8.38357112        0.90291469        4.45888063
  |   37: Species Ti            4.64330470        4.64326319       -0.00033408
  |   38: Species Ti            6.96480967        6.96484698        1.48648267
  |   39: Species O             6.06189046        6.06194525       -0.00008777
  |   40: Species O             7.86757799        7.86760045       -0.00008771
  |   41: Species O             5.54606738        8.38360388        1.48647108
  |   42: Species O             8.38351853        5.54607662        1.48647096
  |   43: Species Ti            4.64330468        4.64326314        2.97228385
  |   44: Species Ti            6.96480445        6.96485409        4.45915851
  |   45: Species O             6.06189054        6.06194502        2.97261197
  |   46: Species O             7.86757825        7.86760041        2.97261191
  |   47: Species O             5.54610905        8.38356567        4.45914680
  |   48: Species O             8.38348777        5.54611084        4.45914686

  Lattice parameters for 3D lattice (in Angstroms) :     9.286307    9.286376    5.945352
  Angle(s) between unit vectors (in degrees)       :    90.000001   90.000000   89.999718


  Quantities derived from the lattice vectors (in Angstrom^-1):
  | Reciprocal lattice vector 1:  0.676608 -0.000002  0.000000
  | Reciprocal lattice vector 2: -0.000002  0.676603  0.000000
  | Reciprocal lattice vector 3:  0.000000  0.000000  1.056823
  | Unit cell volume                               :   0.512704E+03  Angstrom^3

  Fractional coordinates:
                         L1                L2                L3
       atom_frac         0.00001042        0.00001109       -0.00006141  Ti
       atom_frac         0.25000609        0.25000588        0.25002440  Ti
       atom_frac         0.15277473        0.15278038       -0.00001470  O1
       atom_frac         0.34722235        0.34721380       -0.00001473  O
       atom_frac         0.09722691        0.40278923        0.25002243  O
       atom_frac         0.40278389        0.09721906        0.25002244  O
       atom_frac         0.00001042        0.00001109        0.49993931  Ti
       atom_frac         0.25000663        0.25000510        0.75002440  Ti
       atom_frac         0.15277470        0.15278039        0.49998928  O
       atom_frac         0.34722234        0.34721383        0.49998931  O
       atom_frac         0.09723020        0.40278554        0.75002244  O
       atom_frac         0.40277938        0.09722317        0.75002242  O
       atom_frac         0.00001086        0.50002681        0.00006322  Ti
       atom_frac         0.25001347        0.75001190        0.24997562  Ti
       atom_frac         0.15276750        0.65277937        0.00001467  O
       atom_frac         0.34722125        0.84721002        0.00001464  O
       atom_frac         0.09723729        0.90278836        0.24997758  O
       atom_frac         0.40278339        0.59722962        0.24997758  O
       atom_frac         0.00001087        0.50002681        0.50005885  Ti
       atom_frac         0.25001336        0.75001136        0.74997562  Ti
       atom_frac         0.15276750        0.65277936        0.50001078  O
       atom_frac         0.34722126        0.84721002        0.50001081  O
       atom_frac         0.09723256        0.90279194        0.74997759  O
       atom_frac         0.40278670        0.59722516        0.74997760  O
       atom_frac         0.50002657        0.00001063        0.00007883  Ti
       atom_frac         0.75001320        0.25001151        0.24997563  Ti
       atom_frac         0.65277432        0.15277314        0.00001464  O
       atom_frac         0.84721396        0.34721674        0.00001470  O
       atom_frac         0.59723558        0.40278585        0.24997759  O
       atom_frac         0.90278353        0.09723140        0.24997759  O
       atom_frac         0.50002657        0.00001063        0.50004326  Ti
       atom_frac         0.75001331        0.25001207        0.74997563  Ti
       atom_frac         0.65277431        0.15277314        0.50001083  O
       atom_frac         0.84721396        0.34721675        0.50001078  O
       atom_frac         0.59723228        0.40279032        0.74997761  O
       atom_frac         0.90278828        0.09722783        0.74997761  O
       atom_frac         0.50001506        0.50000689       -0.00005619  Ti
       atom_frac         0.75000672        0.75000519        0.25002435  Ti
       atom_frac         0.65277571        0.65277678       -0.00001476  O
       atom_frac         0.84722148        0.84721763       -0.00001475  O
       atom_frac         0.59722846        0.90278389        0.25002240  O
       atom_frac         0.90278138        0.59722504        0.25002238  O
       atom_frac         0.50001506        0.50000689        0.49993407  Ti
       atom_frac         0.75000616        0.75000596        0.75002435  Ti
       atom_frac         0.65277572        0.65277676        0.49998926  O
       atom_frac         0.84722151        0.84721763        0.49998925  O
       atom_frac         0.59723295        0.90277978        0.75002238  O
       atom_frac         0.90277807        0.59722873        0.75002239  O

  Initial moments and charges:
  |  Atom   Moment         Charge        Species
  |     1   0.000000E+00   0.000000E+00   Ti
  |     2   0.000000E+00   0.000000E+00   Ti
  |     3   0.000000E+00   0.000000E+00   O1
  |     4   0.000000E+00   0.000000E+00   O
  |     5   0.000000E+00   0.000000E+00   O
  |     6   0.000000E+00   0.000000E+00   O
  |     7   0.000000E+00   0.000000E+00   Ti
  |     8   0.000000E+00   0.000000E+00   Ti
  |     9   0.000000E+00   0.000000E+00   O
  |    10   0.000000E+00   0.000000E+00   O
  |    11   0.000000E+00   0.000000E+00   O
  |    12   0.000000E+00   0.000000E+00   O
  |    13   0.000000E+00   0.000000E+00   Ti
  |    14   0.000000E+00   0.000000E+00   Ti
  |    15   0.000000E+00   0.000000E+00   O
  |    16   0.000000E+00   0.000000E+00   O
  |    17   0.000000E+00   0.000000E+00   O
  |    18   0.000000E+00   0.000000E+00   O
  |    19   0.000000E+00   0.000000E+00   Ti
  |    20   0.000000E+00   0.000000E+00   Ti
  |    21   0.000000E+00   0.000000E+00   O
  |    22   0.000000E+00   0.000000E+00   O
  |    23   0.000000E+00   0.000000E+00   O
  |    24   0.000000E+00   0.000000E+00   O
  |    25   0.000000E+00   0.000000E+00   Ti
  |    26   0.000000E+00   0.000000E+00   Ti
  |    27   0.000000E+00   0.000000E+00   O
  |    28   0.000000E+00   0.000000E+00   O
  |    29   0.000000E+00   0.000000E+00   O
  |    30   0.000000E+00   0.000000E+00   O
  |    31   0.000000E+00   0.000000E+00   Ti
  |    32   0.000000E+00   0.000000E+00   Ti
  |    33   0.000000E+00   0.000000E+00   O
  |    34   0.000000E+00   0.000000E+00   O
  |    35   0.000000E+00   0.000000E+00   O
  |    36   0.000000E+00   0.000000E+00   O
  |    37   0.000000E+00   0.000000E+00   Ti
  |    38   0.000000E+00   0.000000E+00   Ti
  |    39   0.000000E+00   0.000000E+00   O
  |    40   0.000000E+00   0.000000E+00   O
  |    41   0.000000E+00   0.000000E+00   O
  |    42   0.000000E+00   0.000000E+00   O
  |    43   0.000000E+00   0.000000E+00   Ti
  |    44   0.000000E+00   0.000000E+00   Ti
  |    45   0.000000E+00   0.000000E+00   O
  |    46   0.000000E+00   0.000000E+00   O
  |    47   0.000000E+00   0.000000E+00   O
  |    48   0.000000E+00   0.000000E+00   O

  Slab Identifier: This seems to be a bulk system.
 
  Finished reading input file 'geometry.in'.
 

 
  Consistency checks for stacksize environment parameter are next.
 
  | Maximum stacksize for task 0: unlimited
  | Maximum stacksize for task 1: unlimited
  | Maximum stacksize for task 2: unlimited
  | Maximum stacksize for task 3: unlimited
  | Maximum stacksize for task 4: unlimited
  | Maximum stacksize for task 5: unlimited
  | Maximum stacksize for task 6: unlimited
  | Maximum stacksize for task 7: unlimited
  | Maximum stacksize for task 8: unlimited
  | Maximum stacksize for task 9: unlimited
  | Maximum stacksize for task 10: unlimited
  | Maximum stacksize for task 11: unlimited
  | Maximum stacksize for task 12: unlimited
  | Maximum stacksize for task 13: unlimited
  | Maximum stacksize for task 14: unlimited
  | Maximum stacksize for task 15: unlimited
  | Maximum stacksize for task 16: unlimited
  | Maximum stacksize for task 17: unlimited
  | Maximum stacksize for task 18: unlimited
  | Maximum stacksize for task 19: unlimited
  | Maximum stacksize for task 20: unlimited
  | Maximum stacksize for task 21: unlimited
  | Maximum stacksize for task 22: unlimited
  | Maximum stacksize for task 23: unlimited
  | Maximum stacksize for task 24: unlimited
  | Maximum stacksize for task 25: unlimited
  | Maximum stacksize for task 26: unlimited
  | Maximum stacksize for task 27: unlimited
  | Maximum stacksize for task 28: unlimited
  | Maximum stacksize for task 29: unlimited
  | Maximum stacksize for task 30: unlimited
  | Maximum stacksize for task 31: unlimited
  | Current stacksize for task 0: unlimited
  | Current stacksize for task 1: unlimited
  | Current stacksize for task 2: unlimited
  | Current stacksize for task 3: unlimited
  | Current stacksize for task 4: unlimited
  | Current stacksize for task 5: unlimited
  | Current stacksize for task 6: unlimited
  | Current stacksize for task 7: unlimited
  | Current stacksize for task 8: unlimited
  | Current stacksize for task 9: unlimited
  | Current stacksize for task 10: unlimited
  | Current stacksize for task 11: unlimited
  | Current stacksize for task 12: unlimited
  | Current stacksize for task 13: unlimited
  | Current stacksize for task 14: unlimited
  | Current stacksize for task 15: unlimited
  | Current stacksize for task 16: unlimited
  | Current stacksize for task 17: unlimited
  | Current stacksize for task 18: unlimited
  | Current stacksize for task 19: unlimited
  | Current stacksize for task 20: unlimited
  | Current stacksize for task 21: unlimited
  | Current stacksize for task 22: unlimited
  | Current stacksize for task 23: unlimited
  | Current stacksize for task 24: unlimited
  | Current stacksize for task 25: unlimited
  | Current stacksize for task 26: unlimited
  | Current stacksize for task 27: unlimited
  | Current stacksize for task 28: unlimited
  | Current stacksize for task 29: unlimited
  | Current stacksize for task 30: unlimited
  | Current stacksize for task 31: unlimited
 
  Consistency checks for the contents of control.in are next.
 
  MPI_IN_PLACE appears to work with this MPI implementation.
  | Keeping use_mpi_in_place .true. (see manual).
  Target number of points in a grid batch is not set. Defaulting to  100
  Method for grid partitioning is not set. Defaulting to parallel hash+maxmin partitioning.
  Batch size limit is not set. Defaulting to    200
  By default, will store active basis functions for each batch.
  If in need of memory, prune_basis_once .false. can be used to disable this option.
  communication_type for Hartree potential was not specified.
  Defaulting to calc_hartree .
  Defaulting to Pulay charge density mixer.
  Pulay mixer: Number of relevant iterations not set.
  Defaulting to    8 iterations.
  Pulay mixer: Number of initial linear mixing iterations not set.
  Defaulting to    0 iterations.
  Work space size for distributed Hartree potential not set.
  Defaulting to   0.200000E+03 MB.
  Mixing parameter for charge density mixing has not been set.
  Using default: charge_mix_param =     0.0500.
  The mixing parameter will be adjusted in iteration number     2 of each s.c.f. cycle (i.e., each geometry step).
  Mixing parameter for spin density mixing has not been set.
  Using charge_mix_param as default:     0.0500.
  Algorithm-dependent basis array size parameters:
  | n_max_pulay                         :        8
  Maximum number of self-consistency iterations not provided.
  Presetting  1000 iterations.
  Presetting      1001 iterations before the initial mixing cycle
  is restarted anyway using the sc_init_iter criterion / keyword.
  Presetting a factor      1.000 between actual scf density residual
  and density convergence criterion sc_accuracy_rho below which sc_init_iter
  takes no effect.
 * No s.c.f. convergence criteria (sc_accuracy_*) were provided in control.in.
 * The run will proceed with a reasonable default guess, but please check whether.
 * the s.c.f. cycles seem to take too much or too little time.
  Calculation of forces was not defined in control.in. No forces will be calculated.
  Geometry relaxation not requested: no relaxation will be performed.
 * Notice: The s.c.f. convergence criterion sc_accuracy_rho was not provided.
 * We used to stop in this case, and ask the user to provide reasonable
 * scf convergence criteria. However, this led some users to employ criteria
 * that led to extremely long run times, e.g., for simple relaxation.
 * We now preset a default value for sc_accuracy_rho if it is not set.
 * You may still wish to check if this setting is too tight or too loose for your needs.
 * Based on n_atoms and forces and force-correction status, FHI-aims chose sc_accuracy_rho =  0.282843E-05 .
  No accuracy limit for integral partition fn. given. Defaulting to  0.1000E-14.
  No threshold value for u(r) in integrations given. Defaulting to  0.1000E-05.
  No occupation type (smearing scheme) given. Defaulting to Gaussian broadening, width =  0.1000E-01 eV.
  The width will be adjusted in iteration number     2 of each s.c.f. cycle (i.e., each geometry step).
  No accuracy for occupation numbers given. Defaulting to  0.1000E-12.
  No threshold value for occupation numbers given. Defaulting to  0.0000E+00.
  No accuracy for fermi level given. Defaulting to  0.1000E-19.
  Maximum # of iterations to find E_F not set. Defaulting to  200.
  Will not use alltoall communication since running on < 1024 CPUs.
  Threshold for basis singularities not set.
  Default threshold for basis singularities:  0.1000E-04
  partition_type (choice of integration weights) for integrals was not specified.
  | Using a version of the partition function of Stratmann and coworkers ('stratmann_sparse').
  | At each grid point, the set of atoms used to build the partition table is smoothly restricted to
  | only those atoms whose free-atom density would be non-zero at that grid point.
  Partitioning for Hartree potential was not defined. Using partition_type for integrals.
  | Adjusted default value of keyword multip_moments_threshold to:       0.10000000E-11
  | This value may affect high angular momentum components of the Hartree potential in periodic systems.
  No q(lm)/r^(l+1) cutoff set for long-range Hartree potential.
  | Using default value of  0.100000E-09 .
  | Verify using the multipole_threshold keyword.
  Defaulting to new monopole extrapolation.
  Density update method: automatic selection selected.
  Using density matrix based charge density update.
  Using density matrix based charge density update.
  Using packed matrix style: index .
  Defaulting to use time-reversal symmetry for k-point grid.
  Charge integration errors on the 3D integration grid will be compensated
  by explicit normalization and distribution of residual charges.
  Use the "compensate_multipole_errors" flag to change this behaviour.
  Set 'collect_eigenvectors' to be '.true.' for all serial calculations. This is mandatory.
  Set 'collect_eigenvectors' to be '.true.' for KS_method lapack_fast and serial.
  Found potential conflicts with setting 'use_local_index' for this calculation. Will not set it.
 
  Consistency checks for the contents of geometry.in are next.
 

  Range separation radius for Ewald summation (hartree_convergence_parameter):      3.05694433 bohr.
  Number of empty states per atom not set in control.in - providing a guess from actual geometry.
  | Total number of empty states used during s.c.f. cycle:      184
  If you use a very high smearing, use empty_states (per atom!) in control.in to increase this value.

  Structure-dependent array size parameters: 
  | Number of distinct atom types in initial rho :        3
  | Maximum number of distinct radial functions  :       39
  | Maximum number of basis functions            :     1000
  | Number of Kohn-Sham states (occupied + empty):      488
------------------------------------------------------------
  After read_input_data [GB]:    936.33

  Performing system and environment tests:
  *** Environment variable OMP_NUM_THREADS is not set
  *** For performance reasons you might want to set it to 1
  | Checking for ScaLAPACK...
  | Testing pdtran()...
  | All pdtran() tests passed.
  After prepare_system [GB]:    936.20

------------------------------------------------------------
          Preparing all fixed parts of the calculation.
------------------------------------------------------------
  Determining machine precision:
    2.225073858507201E-308
  Setting up grids for atomic and cluster calculations.

  Creating wave function, potential, and density for free atoms.
  Runtime choices for atomic solver:
  | atomic solver xc        : PBE
  | compute density gradient: 1
  | compute kinetic density : F

  Species: Ti

  List of occupied orbitals and eigenvalues:
    n    l              occ      energy [Ha]    energy [eV]
    1    0           2.0000      -179.959082     -4896.9358
    2    0           2.0000       -19.727662      -536.8170
    3    0           2.0000        -2.283029       -62.1244
    4    0           2.0000        -0.148384        -4.0377
    2    1           6.0000       -16.317278      -444.0157
    3    1           6.0000        -1.409348       -38.3503
    3    2           2.0000        -0.139340        -3.7916


  Species: O

  List of occupied orbitals and eigenvalues:
    n    l              occ      energy [Ha]    energy [eV]
    1    0           2.0000       -18.926989      -515.0296
    2    0           2.0000        -0.880247       -23.9527
    2    1           4.0000        -0.331514        -9.0210


  Species: O1

  List of occupied orbitals and eigenvalues:
    n    l              occ      energy [Ha]    energy [eV]
    1    0           2.0000       -18.927378      -515.0401
    2    0           2.0000        -0.880539       -23.9607
    2    1           4.0000        -0.331811        -9.0290

  Spin-polarized or charged system:
  Charge density initialized according to selected moments and charges.

  Creating spin-polarized density from free atoms.

  Species: Ti
  Charge:   0.000000
  Moment:   0.000000

  List of occupied orbitals and eigenvalues:
    n    l      energy [Ha]    energy [eV]    occupation
  Spin-up
    1    0      -179.959082     -4896.9358     1.00000000
    2    0       -19.727662      -536.8170     1.00000000
    3    0        -2.283029       -62.1244     1.00000000
    4    0        -0.148384        -4.0377     1.00000000
    2    1       -16.317278      -444.0157     3.00000000
    3    1        -1.409348       -38.3503     3.00000000
    3    2        -0.139340        -3.7916     1.00000000
  Spin-down
    1    0      -179.959082     -4896.9358     1.00000000
    2    0       -19.727662      -536.8170     1.00000000
    3    0        -2.283029       -62.1244     1.00000000
    4    0        -0.148384        -4.0377     1.00000000
    2    1       -16.317278      -444.0157     3.00000000
    3    1        -1.409348       -38.3503     3.00000000
    3    2        -0.139340        -3.7916     1.00000000


  Species: O1
  Charge:   0.000000
  Moment:   0.000000

  List of occupied orbitals and eigenvalues:
    n    l      energy [Ha]    energy [eV]    occupation
  Spin-up
    1    0       -18.927378      -515.0401     1.00000000
    2    0        -0.880539       -23.9607     1.00000000
    2    1        -0.331811        -9.0290     2.00000000
  Spin-down
    1    0       -18.927378      -515.0401     1.00000000
    2    0        -0.880539       -23.9607     1.00000000
    2    1        -0.331811        -9.0290     2.00000000


  Species: O
  Charge:   0.000000
  Moment:   0.000000

  List of occupied orbitals and eigenvalues:
    n    l      energy [Ha]    energy [eV]    occupation
  Spin-up
    1    0       -18.926989      -515.0296     1.00000000
    2    0        -0.880247       -23.9527     1.00000000
    2    1        -0.331514        -9.0210     2.00000000
  Spin-down
    1    0       -18.926989      -515.0296     1.00000000
    2    0        -0.880247       -23.9527     1.00000000
    2    1        -0.331514        -9.0210     2.00000000


  Adding cutoff potential to free-atom effective potential.
  Creating fixed part of basis set: Ionic, confined, hydrogenic.
 
  Ti                   ion:

  List of free ionic orbitals and eigenvalues:
    n    l      energy [Ha]    energy [eV]
    1    0      -180.819616     -4920.3521
    2    0       -20.608761      -560.7929
    3    0        -3.115729       -84.7833
    4    0        -0.697188       -18.9715
    2    1       -17.196209      -467.9327
    3    1        -2.231296       -60.7167
    3    2        -0.911363       -24.7995


  List of ionic basis orbitals and eigenvalues:
    n    l      energy [Ha]    energy [eV]    outer radius [A]
    4    1        -0.517739       -14.0884       4.592117
    4    0        -0.696824       -18.9615       4.536321

 
  Ti                   hydrogenic:
 
  List of hydrogenic basis orbitals: 
    n    l      effective z      eigenvalue [eV]  inner max. [A]     outer max. [A]     outer radius [A]   
    4    3         8.000000       -54.4222           1.059019           1.059019           4.267343
    3    2         2.700000       -10.7798           1.726925           1.726925           4.592117
 
 
  O                    hydrogenic:
 
  List of hydrogenic basis orbitals: 
    n    l      effective z      eigenvalue [eV]  inner max. [A]     outer max. [A]     outer radius [A]   
    2    1         1.800000       -10.9749           1.164242           1.164242           4.578029
    3    2         7.600000       -87.3180           0.624125           0.624125           3.251020
    3    0         6.400000       -61.9207           0.061167           1.081902           4.001998
 
 
  O1                   ion:

  List of free ionic orbitals and eigenvalues:
    n    l      energy [Ha]    energy [eV]
    1    0       -20.485570      -557.4407
    2    0        -2.134830       -58.0917
    2    1        -1.577627       -42.9294


  List of ionic basis orbitals and eigenvalues:
    n    l      energy [Ha]    energy [eV]    outer radius [A]
    2    1        -1.577621       -42.9293       3.541477

 
  O1                   hydrogenic:
 
  List of hydrogenic basis orbitals: 
    n    l      effective z      eigenvalue [eV]  inner max. [A]     outer max. [A]     outer radius [A]   
    2    1         1.800000       -11.0118           1.178562           1.178562           5.432602
    3    2         7.600000       -87.3182           0.624125           0.624125           3.541477
    3    0         6.400000       -61.9209           0.061167           1.081902           4.306578
    4    3        11.600000      -114.4238           0.731631           0.731631           3.585037
    3    1         6.200000       -58.1113           0.255680           1.030270           4.306578
    3    2         5.600000       -47.4081           0.847233           0.847233           4.413171
    5    4        17.600000      -168.5799           0.749740           0.749740           3.372465
    1    0         0.750000        -7.6499           0.705284           0.705284           5.366593
    4    3        10.800000       -99.1854           0.787313           0.787313           3.764702
    4    2         4.700000       -18.6841           0.758962           2.365807           5.499423
    2    0         6.800000      -157.2818           0.059689           0.406863           2.739620
    1    0        12.000000     -1959.2197           0.043971           0.043971           0.816724
    1    0        10.000000     -1360.5692           0.052821           0.052821           0.981101
    1    0         6.000000      -489.8049           0.088266           0.088266           1.561224
    2    0        10.000000      -340.1423           0.040365           0.278524           2.093567
    2    1         8.000000      -217.6911           0.265231           0.265231           2.365807
    2    1         6.000000      -122.4512           0.351348           0.351348           2.841960
    3    2         8.000000       -96.7515           0.594340           0.594340           3.455938
 
  Creating atomic-like basis functions for current effective potential.

  Species Ti                  :

  List of atomic basis orbitals and eigenvalues:
    n    l      energy [Ha]    energy [eV]    outer radius [A]
    1    0      -179.959082     -4896.9358       0.490254
    2    0       -19.727662      -536.8170       1.491292
    3    0        -2.283029       -62.1244       4.014314
    4    0        -0.148384        -4.0377       4.592117
    2    1       -16.317278      -444.0157       1.585290
    3    1        -1.409348       -38.3503       4.267343
    3    2        -0.139340        -3.7916       4.536321


  Species O                   :

  List of atomic basis orbitals and eigenvalues:
    n    l      energy [Ha]    energy [eV]    outer radius [A]
    1    0       -18.926989      -515.0296       1.415765
    2    0        -0.880247       -23.9527       4.413171
    2    1        -0.331514        -9.0210       4.522403


  Species O1                  :

  List of atomic basis orbitals and eigenvalues:
    n    l      energy [Ha]    energy [eV]    outer radius [A]
    1    0       -18.927378      -515.0401       1.415765
    2    0        -0.880539       -23.9607       5.048385
    2    1        -0.331811        -9.0290       5.301386

  Assembling full basis from fixed parts.
  | Species Ti :   atomic orbital   1 s accepted.
  | Species Ti :   atomic orbital   2 s accepted.
  | Species Ti :   atomic orbital   3 s accepted.
  | Species Ti :    ionic orbital   4 s accepted.
  | Species Ti :   atomic orbital   4 s accepted.
  | Species Ti :   atomic orbital   2 p accepted.
  | Species Ti :   atomic orbital   3 p accepted.
  | Species Ti :    ionic orbital   4 p accepted.
  | Species Ti :   atomic orbital   3 d accepted.
  | Species Ti :    hydro orbital   3 d accepted.
  | Species Ti :    hydro orbital   4 f accepted.
  | Species O :   atomic orbital   1 s accepted.
  | Species O :    hydro orbital   3 s accepted.
  | Species O :   atomic orbital   2 s accepted.
  | Species O :   atomic orbital   2 p accepted.
  | Species O :    hydro orbital   2 p accepted.
  | Species O :    hydro orbital   3 d accepted.
  | Species O1 :    hydro orbital   1 s accepted.
  | Species O1 :    hydro orbital   1 s accepted.
  | Species O1 :   atomic orbital   1 s accepted.
  | Species O1 :    hydro orbital   1 s accepted.
  | Species O1 :    hydro orbital   2 s accepted.
  | Species O1 :    hydro orbital   2 s accepted.
  | Species O1 :    hydro orbital   3 s accepted.
  | Species O1 :   atomic orbital   2 s accepted.
  | Species O1 :    hydro orbital   1 s accepted.
  | Species O1 :    hydro orbital   2 p accepted.
  | Species O1 :    hydro orbital   2 p accepted.
  | Species O1 :    ionic orbital   2 p accepted.
  | Species O1 :    hydro orbital   3 p accepted.
  | Species O1 :   atomic orbital   2 p accepted.
  | Species O1 :    hydro orbital   2 p accepted.
  | Species O1 :    hydro orbital   3 d accepted.
  | Species O1 :    hydro orbital   3 d accepted.
  | Species O1 :    hydro orbital   3 d accepted.
  | Species O1 :    hydro orbital   4 d accepted.
  | Species O1 :    hydro orbital   4 f accepted.
  | Species O1 :    hydro orbital   4 f accepted.
  | Species O1 :    hydro orbital   5 g accepted.
 
  Basis size parameters after reduction:
  | Total number of radial functions:       39
  | Total number of basis functions :     1000
 
  Per-task memory consumption for arrays in subroutine allocate_ext:
  |          10.386572MB.
  Testing on-site integration grid accuracy.
  |  Species  Function  <phi|h_atom|phi> (log., in eV)  <phi|h_atom|phi> (rad., in eV)
           1        1              -4896.9357674450              -4896.9322838106
           1        2               -536.8170048508               -536.8169722776
           1        3                -62.1243896260                -62.1243889401
           1        4                 -3.2653235630                 -3.2692838824
           1        5                  6.7987747276                  6.5460721871 ***
           1        6               -444.0157161949               -444.0157165643
           1        7                -38.3503235548                -38.3503234985
           1        8                  0.2923930877                  0.2745948114
           1        9                 -3.7933400649                 -3.7959244171
           1       10                  6.3288803616                  6.2510614935 ***
           1       11                 27.8451455747                 27.8452636415
           2       12               -515.0295626295               -515.0294562869
           2       13                 15.1698434419                 15.1699322205
           2       14                -21.6038822678                -21.6039118108
           2       15                 -9.0211123393                 -9.0212703513
           2       16                  8.3047696391                  8.2854840999
           2       17                 45.8428042125                 45.8427461223
           3       18               -272.9322507263               -272.9201921991
           3       19               1665.9089384428               1665.9689460231 ***
           3       20               2095.2037268945               2095.2740317228 ***
           3       21               3047.3679718515               3047.0126722257 ***
           3       22               3234.6000205573               3231.5687072350 ***
           3       23               2428.4660356492               2422.2375592442 ***
           3       24                896.7802862158                893.3913916184 ***
           3       25               3128.2108268826               3108.2674940926 ***
           3       26                 71.8616615187                 71.1575836879 ***
           3       27                 15.4122562036                 15.4122564509
           3       28                101.7989356251                101.7989355629
           3       29                121.1064459338                121.1064460850
           3       30                271.5759585347                271.5759823152
           3       31                159.3966255928                159.3962927971
           3       32                153.6473243407                153.6504704040
           3       33                 50.7421815376                 50.7421815945
           3       34                 88.5010368311                 88.5010331057
           3       35                 82.9872957917                 82.9873669217
           3       36                 36.7418806245                 36.7419113217
           3       37                 85.4133898762                 85.4133899074
           3       38                115.1018427582                115.1018451832
           3       39                142.1023296234                142.1023296272
 * Note: Onsite integrals marked "***" above are less accurate than
 * onsite_accuracy_threshold =    0.03000 eV. Usually, this is harmless.
 * When in doubt, tighten the "radial" and/or "radial_multiplier" flags to check.

  Preparing densities etc. for the partition functions (integrals / Hartree potential).

  Preparations completed.
  max(cpu_time)          :      0.810 s.
  Wall clock time (cpu1) :      0.810 s.
------------------------------------------------------------
  After prepare_scf [GB]:    934.21

  Initializing index lists of integration centers etc. from given atomic structure:
  Mapping all atomic coordinates to central unit cell.

  Initializing the k-points
  Using symmetry for reducing the k-points
  | k-points reduced from:       96 to       52
  | Number of k-points                             :        52
  The eigenvectors in the calculations are COMPLEX.
  | K-points in task   0:         1
  | K-points in task   1:         2
  | K-points in task   2:         2
  | K-points in task   3:         2
  | K-points in task   4:         2
  | K-points in task   5:         2
  | K-points in task   6:         2
  | K-points in task   7:         2
  | K-points in task   8:         2
  | K-points in task   9:         2
  | K-points in task  10:         2
  | K-points in task  11:         2
  | K-points in task  12:         2
  | K-points in task  13:         2
  | K-points in task  14:         2
  | K-points in task  15:         2
  | K-points in task  16:         2
  | K-points in task  17:         2
  | K-points in task  18:         2
  | K-points in task  19:         2
  | K-points in task  20:         2
  | K-points in task  21:         1
  | K-points in task  22:         1
  | K-points in task  23:         1
  | K-points in task  24:         1
  | K-points in task  25:         1
  | K-points in task  26:         1
  | K-points in task  27:         1
  | K-points in task  28:         1
  | K-points in task  29:         1
  | K-points in task  30:         1
  | K-points in task  31:         1
  | Number of basis functions in the Hamiltonian integrals :      7648
  | Number of basis functions in a single unit cell        :      1000
  | Number of centers in hartree potential         :      2123
  | Number of centers in hartree multipole         :      1442
  | Number of centers in electron density summation:      1113
  | Number of centers in basis integrals           :      1190
  | Number of centers in integrals                 :       485
  | Number of centers in hamiltonian               :      1630
  | Consuming         60 KiB for k_phase.
  | Number of super-cells (origin) [n_cells]                     :         175
  | Number of super-cells (after PM_index) [n_cells]             :          74
  | Number of super-cells in hamiltonian [n_cells_in_hamiltonian]:          74
  | Size of matrix packed + index [n_hamiltonian_matrix_size] :     2375882
  After initialize_bc_dependent_lists [GB]:    934.18

------------------------------------------------------------
          Begin self-consistency loop: Initialization.

          Date     :  20241021, Time     :  120157.727
------------------------------------------------------------
  Available memory per node after initialize_hartree_non_periodic_ewald [GB]:    934.18
  | Estimated reciprocal-space cutoff momentum G_max:         3.25527167 bohr^-1 .
  | Reciprocal lattice points for long-range Hartree potential:    1990
  Available memory per node after initialize_recip_hartree_potential [GB]:    934.18
  Available memory per node after initialize_scalapack [GB]:    934.18
  Available memory per node after aims_elsi_init_scf [GB]:    934.18
  Available memory per node after initialize_fixed_grids [GB]:    934.18
  Partitioning the integration grid into batches with parallel hashing+maxmin method.
  | Number of batches:     4103
  | Maximal batch size:     106
  | Minimal batch size:      49
  | Average batch size:      78.069
  | Standard deviation of batch sizes:       6.551

  Integration load balanced across    32 MPI tasks.
  Work distribution over tasks is as follows:
  Task     0 has       9967 integration points.
  Task     1 has       9989 integration points.
  Task     2 has       9966 integration points.
  Task     3 has      10014 integration points.
  Task     4 has      10032 integration points.
  Task     5 has      10016 integration points.
  Task     6 has      10035 integration points.
  Task     7 has      10002 integration points.
  Task     8 has      10042 integration points.
  Task     9 has      10015 integration points.
  Task    10 has       9989 integration points.
  Task    11 has       9991 integration points.
  Task    12 has      10024 integration points.
  Task    13 has       9989 integration points.
  Task    14 has      10039 integration points.
  Task    15 has      10004 integration points.
  Task    16 has      10013 integration points.
  Task    17 has       9965 integration points.
  Task    18 has      10041 integration points.
  Task    19 has       9991 integration points.
  Task    20 has      10012 integration points.
  Task    21 has      10034 integration points.
  Task    22 has      10035 integration points.
  Task    23 has       9967 integration points.
  Task    24 has      10032 integration points.
  Task    25 has      10024 integration points.
  Task    26 has      10014 integration points.
  Task    27 has       9992 integration points.
  Task    28 has      10044 integration points.
  Task    29 has       9969 integration points.
  Task    30 has      10040 integration points.
  Task    31 has      10031 integration points.
  Available memory per node after partition_grid [GB]:    934.18
  Initializing partition tables, free-atom densities, potentials, etc. across the integration grid (initialize_grid_storage).
  | initialize_grid_storage: Actual outermost partition radius vs. multipole_radius_free
  | (-- VB: in principle, multipole_radius_free should be larger, hence this output)
  | Species        1: Confinement radius =              4.999999999999999 AA, multipole_radius_free =              5.002391649902235 AA.
  | Species        1: outer_partition_radius set to              5.002391649902235 AA .
  | Species        2: Confinement radius =              4.999999999999999 AA, multipole_radius_free =              5.048384829883283 AA.
  | Species        2: outer_partition_radius set to              5.048384829883283 AA .
  | Species        3: Confinement radius =              6.000000000000000 AA, multipole_radius_free =              6.064445521808699 AA.
  | Species        3: outer_partition_radius set to              6.064445521808699 AA .
  | The sparse table of interatomic distances needs      11001.83 kbyte instead of     11328.80 kbyte of memory.
  | Net number of integration points:   320318
  | of which are non-zero points    :   261462
  | Numerical average free-atom electrostatic potential    :    -17.70618222 eV
  Available memory per node after initialize_grid_storage_p1 [GB]:    934.16
  Renormalizing the initial density to the exact electron count on the 3D integration grid.
  | Initial density: Formal number of electrons (from input files) :     608.0000000000
  | Integrated number of electrons on 3D grid     :     608.0049795010
  | Charge integration error                      :       0.0049795010
  | Normalization factor for density and gradient :       0.9999918101
  Renormalizing the free-atom superposition density to the exact electron count on the 3D integration grid.
  | Formal number of electrons (from input files) :     608.0000000000
  | Integrated number of electrons on 3D grid     :     608.0049795010
  | Charge integration error                      :       0.0049795010
  | Normalization factor for density and gradient :       0.9999918101
  Obtaining max. number of non-zero basis functions in each batch (get_n_compute_maxes).
  | Maximal number of non-zero basis functions:      914 in task     0
  | Maximal number of non-zero basis functions:      878 in task     1
  | Maximal number of non-zero basis functions:      898 in task     2
  | Maximal number of non-zero basis functions:      907 in task     3
  | Maximal number of non-zero basis functions:      923 in task     4
  | Maximal number of non-zero basis functions:      954 in task     5
  | Maximal number of non-zero basis functions:      886 in task     6
  | Maximal number of non-zero basis functions:      943 in task     7
  | Maximal number of non-zero basis functions:      887 in task     8
  | Maximal number of non-zero basis functions:      915 in task     9
  | Maximal number of non-zero basis functions:      880 in task    10
  | Maximal number of non-zero basis functions:      909 in task    11
  | Maximal number of non-zero basis functions:      881 in task    12
  | Maximal number of non-zero basis functions:      907 in task    13
  | Maximal number of non-zero basis functions:      866 in task    14
  | Maximal number of non-zero basis functions:      929 in task    15
  | Maximal number of non-zero basis functions:      902 in task    16
  | Maximal number of non-zero basis functions:      903 in task    17
  | Maximal number of non-zero basis functions:      902 in task    18
  | Maximal number of non-zero basis functions:      919 in task    19
  | Maximal number of non-zero basis functions:      907 in task    20
  | Maximal number of non-zero basis functions:      915 in task    21
  | Maximal number of non-zero basis functions:      899 in task    22
  | Maximal number of non-zero basis functions:      886 in task    23
  | Maximal number of non-zero basis functions:      935 in task    24
  | Maximal number of non-zero basis functions:      881 in task    25
  | Maximal number of non-zero basis functions:      929 in task    26
  | Maximal number of non-zero basis functions:      919 in task    27
  | Maximal number of non-zero basis functions:      919 in task    28
  | Maximal number of non-zero basis functions:      919 in task    29
  | Maximal number of non-zero basis functions:      919 in task    30
  | Maximal number of non-zero basis functions:      880 in task    31
  Available memory per node after get_n_compute_maxes_p1 [GB]:    934.16
  Initialize hartree_potential_storage
  Max. number of atoms included in rho_multipole:           48

  Evaluating partitioned Hartree potential by multipole expansion.
  | Original multipole sum: apparent total charge =  -0.204518E-12
  | Sum of charges compensated after spline to logarithmic grids =   0.000000E+00
  | Analytical far-field extrapolation by fixed multipoles:
  | Hartree multipole sum: apparent total charge =   0.000000E+00
  Summing up the Hartree potential.
  | Ewald reciprocal-space coefficients, myid =     0 : cpu      0.001 s, wall      0.001 s.
  | Ewald reciprocal-space coefficients, myid =     1 : cpu      0.001 s, wall      0.001 s.
  | Ewald reciprocal-space coefficients, myid =     2 : cpu      0.001 s, wall      0.001 s.
  | Ewald reciprocal-space coefficients, myid =     3 : cpu      0.001 s, wall      0.001 s.
  | Ewald reciprocal-space coefficients, myid =     4 : cpu      0.001 s, wall      0.001 s.
  | Ewald reciprocal-space coefficients, myid =     5 : cpu      0.001 s, wall      0.001 s.
  | Ewald reciprocal-space coefficients, myid =     6 : cpu      0.001 s, wall      0.001 s.
  | Ewald reciprocal-space coefficients, myid =     7 : cpu      0.001 s, wall      0.001 s.
  | Ewald reciprocal-space coefficients, myid =     8 : cpu      0.001 s, wall      0.001 s.
  | Ewald reciprocal-space coefficients, myid =     9 : cpu      0.001 s, wall      0.001 s.
  | Ewald reciprocal-space coefficients, myid =    10 : cpu      0.001 s, wall      0.001 s.
  | Ewald reciprocal-space coefficients, myid =    11 : cpu      0.001 s, wall      0.001 s.
  | Ewald reciprocal-space coefficients, myid =    12 : cpu      0.001 s, wall      0.001 s.
  | Ewald reciprocal-space coefficients, myid =    13 : cpu      0.001 s, wall      0.001 s.
  | Ewald reciprocal-space coefficients, myid =    14 : cpu      0.001 s, wall      0.001 s.
  | Ewald reciprocal-space coefficients, myid =    15 : cpu      0.001 s, wall      0.001 s.
  | Ewald reciprocal-space coefficients, myid =    16 : cpu      0.001 s, wall      0.001 s.
  | Ewald reciprocal-space coefficients, myid =    17 : cpu      0.001 s, wall      0.001 s.
  | Ewald reciprocal-space coefficients, myid =    18 : cpu      0.001 s, wall      0.001 s.
  | Ewald reciprocal-space coefficients, myid =    19 : cpu      0.001 s, wall      0.001 s.
  | Ewald reciprocal-space coefficients, myid =    20 : cpu      0.001 s, wall      0.001 s.
  | Ewald reciprocal-space coefficients, myid =    21 : cpu      0.001 s, wall      0.001 s.
  | Ewald reciprocal-space coefficients, myid =    22 : cpu      0.001 s, wall      0.001 s.
  | Ewald reciprocal-space coefficients, myid =    23 : cpu      0.001 s, wall      0.001 s.
  | Ewald reciprocal-space coefficients, myid =    24 : cpu      0.001 s, wall      0.001 s.
  | Ewald reciprocal-space coefficients, myid =    25 : cpu      0.001 s, wall      0.001 s.
  | Ewald reciprocal-space coefficients, myid =    26 : cpu      0.001 s, wall      0.001 s.
  | Ewald reciprocal-space coefficients, myid =    27 : cpu      0.001 s, wall      0.001 s.
  | Ewald reciprocal-space coefficients, myid =    28 : cpu      0.001 s, wall      0.001 s.
  | Ewald reciprocal-space coefficients, myid =    29 : cpu      0.001 s, wall      0.001 s.
  | Ewald reciprocal-space coefficients, myid =    30 : cpu      0.001 s, wall      0.001 s.
  | Ewald reciprocal-space coefficients, myid =    31 : cpu      0.001 s, wall      0.001 s.
  Time summed over all CPUs for potential: real work        0.156 s, elapsed        0.283 s
  | RMS charge density error from multipole expansion :   0.541776E-13
  | Average real-space part of the electrostatic potential :      0.00000000 eV

  Allocating       14.893 MB for KS_eigenvector_complex
  Available memory per node after allocate_matrices [GB]:    933.92
  Available memory per node after init_comm_sparse_local_matrix_scalapack [GB]:    933.53
  Integrating Hamiltonian matrix: batch-based integration.
  Time summed over all CPUs for integration: real work      149.750 s, elapsed      302.948 s => Consider using load balancing!
  Available memory per node after integrate hamiltonian matrix [GB]:    931.69
  Integrating overlap matrix.
  Time summed over all CPUs for integration: real work       20.932 s, elapsed       31.799 s
  Available memory per node after integrate ovlp matrix [GB]:    931.04
  Available memory per node after ASI_callbacks invoke [GB]:    931.04
  Available memory per node after save_overlap_scalapack [GB]:    931.04

  Updating Kohn-Sham eigenvalues and eigenvectors using ELSI and the (modified) LAPACK eigensolver.
  Singularity check in k-point 32, task 0 (analysis for other k-points/tasks may follow below):
  Overlap matrix is not singular
  | Lowest and highest eigenvalues :  0.8156E-04,  0.8743E+01
  Finished singularity check of overlap matrix
  | Time :     0.468 s
  Starting LAPACK eigensolver
  Finished Cholesky decomposition
  | Time :     0.079 s
  Finished transformation to standard eigenproblem
  | Time :     0.117 s
  Finished solving standard eigenproblem
  | Time :     0.541 s
  Finished back-transformation of eigenvectors
  | Time :     0.046 s

  Obtaining occupation numbers and electronic chemical potential using ELSI.
  | Note that, for insulating systems, the printed 'chemical potential' value is not uniquely defined.
  | It can be anywhere in the energy gap, as long as it correctly separates occupied and unoccupied states.
  | In systems with a gap, the physically relevant chemical potential is the VBM or HOMO.

  | Chemical potential (Fermi level):   -11.24296601 eV
  Available memory per node after advance_KS_solution [GB]:    928.97
  Writing Kohn-Sham eigenvalues.

  Spin-up eigenvalues:
  K-point:       1 at    0.000000    0.000000    0.000000 (in units of recip. lattice)

  State    Occupation    Eigenvalue [Ha]    Eigenvalue [eV]
      1       1.00000        -179.962447        -4897.02733
      2       1.00000        -179.962446        -4897.02730
      3       1.00000        -179.962442        -4897.02720
      4       1.00000        -179.962393        -4897.02587
      5       1.00000        -179.962392        -4897.02584
      6       1.00000        -179.962392        -4897.02584
      7       1.00000        -179.962391        -4897.02582
      8       1.00000        -179.962391        -4897.02581
      9       1.00000        -179.962391        -4897.02581
     10       1.00000        -179.962390        -4897.02579
     11       1.00000        -179.962390        -4897.02579
     12       1.00000        -179.962390        -4897.02579
     13       1.00000        -179.962390        -4897.02579
     14       1.00000        -179.962390        -4897.02579
     15       1.00000        -179.962390        -4897.02579
     16       1.00000        -179.962390        -4897.02578
     17       1.00000         -19.738028         -537.09908
     18       1.00000         -19.738027         -537.09905
     19       1.00000         -19.738024         -537.09896
     20       1.00000         -19.737975         -537.09763
     21       1.00000         -19.737974         -537.09760
     22       1.00000         -19.737974         -537.09760
     23       1.00000         -19.737973         -537.09757
     24       1.00000         -19.737973         -537.09757
     25       1.00000         -19.737973         -537.09757
     26       1.00000         -19.737972         -537.09755
[...]
    480       0.00000           0.545111           14.83323
    481       0.00000           0.546073           14.85940
    482       0.00000           0.546231           14.86370
    483       0.00000           0.576934           15.69917
    484       0.00000           0.594559           16.17877
    485       0.00000           0.613212           16.68634
    486       0.00000           0.614503           16.72148
    487       0.00000           0.629820           17.13827
    488       0.00000           0.632280           17.20522

  Current spin moment of the entire structure :
  | N = N_up - N_down (sum over all k points):         0.00000
  | S (sum over all k points)                :         0.00000

  What follows are estimated values for band gap, HOMO, LUMO, etc.
  | They are estimated on a discrete k-point grid and not necessarily exact.
  | For converged numbers, create a DOS and/or band structure plot on a denser k-grid.

  Highest occupied state (VBM) at     -8.70275484 eV (relative to internal zero)
  | Occupation number:      1.00000000
  | K-point:       1 at    0.000000    0.000000    0.000000 (in units of recip. lattice)
  | Spin channel:        2

  Lowest unoccupied state (CBM) at    -6.93206376 eV (relative to internal zero)
  | Occupation number:      0.00000000
  | K-point:       1 at    0.000000    0.000000    0.000000 (in units of recip. lattice)
  | Spin channel:        2

  ESTIMATED overall HOMO-LUMO gap:      1.77069109 eV between HOMO at k-point 1 and LUMO at k-point 1
  | This appears to be a direct band gap.
  The gap value is above 0.2 eV. Unless you are using a very sparse k-point grid,
  this system is most likely an insulator or a semiconductor.

  Total energy components:
  | Sum of eigenvalues            :       -9515.81016939 Ha     -258938.36934824 eV
  | XC energy correction          :        -948.96019171 Ha      -25822.52065189 eV
  | XC potential correction       :        1226.96195390 Ha       33387.33349435 eV
  | Free-atom electrostatic energy:       -6841.44887168 Ha     -186165.29578444 eV
  | Hartree energy correction     :           7.47501325 Ha         203.40545970 eV
  | Entropy correction            :          -0.00000000 Ha          -0.00000000 eV
  | ---------------------------
  | Total energy                  :      -16071.78226564 Ha     -437335.44683052 eV
  | Total energy, T -> 0          :      -16071.78226564 Ha     -437335.44683052 eV  <-- do not rely on this value for anything but (periodic) metals
  | Electronic free energy        :      -16071.78226564 Ha     -437335.44683052 eV

  Derived energy quantities:
  | Kinetic energy                :       16261.00939412 Ha      442484.57898156 eV
  | Electrostatic energy          :      -31383.83146805 Ha     -853997.50516019 eV
  | Energy correction for multipole
  | error in Hartree potential    :           0.15980395 Ha           4.34848674 eV
  | Sum of eigenvalues per atom                           :       -5394.54936142 eV
  | Total energy (T->0) per atom                          :       -9111.15514230 eV  <-- do not rely on this value for anything but (periodic) metals
  | Electronic free energy per atom                       :       -9111.15514230 eV
  End evaluation of scaled ZORA corrections.
  | Time for scaled ZORA corrections            :       19.094 s          19.096 s
------------------------------------------------------------

  Energy and forces in a compact form:
  | Total energy uncorrected      :         -0.437335446830519E+06 eV
  | Total energy corrected        :         -0.437335446830519E+06 eV  <-- do not rely on this value for anything but (periodic) metals
  | Electronic free energy        :         -0.437335446830519E+06 eV

  ------------------------------------ 
  Start decomposition of the XC Energy 
  ------------------------------------ 
  X and C from original XC functional choice 
  Hartree-Fock Energy :          0.000000000 Ha              0.000000000 eV
  X Energy            :       -924.877923433 Ha         -25167.208790097 eV
  C Energy            :        -24.082268280 Ha           -655.311861794 eV
  XC Energy w/o HF    :       -948.960191713 Ha         -25822.520651891 eV
  Total XC Energy     :       -948.960191713 Ha         -25822.520651891 eV
  ------------------------------------ 
  LDA X and C from self-consistent density 
  X Energy LDA        :       -858.578842140 Ha         -23363.118997029 eV
  C Energy LDA        :        -46.968473316 Ha          -1278.077186776 eV
  ------------------------------------ 
  End decomposition of the XC Energy 
  ------------------------------------ 

------------------------------------------------------------

  ------------------------------------------------------------
                   Starting Mulliken Analysis
  ------------------------------------------------------------

  Performing Mulliken charge analysis on all atoms.
  Full analysis will be written to separate file 'Mulliken.out'.
  Summary of the per-atom charge analysis:
  |
  |  atom       electrons          charge             l=0             l=1             l=2             l=3             l=4
  |     1       21.072886        0.927114        6.139288       12.623788        2.169462        0.140348
  |     2       21.069453        0.930547        6.147260       12.618256        2.162300        0.141637
  |     3        7.028972        0.971028        3.624950        4.104723       -0.708641        0.007167        0.000773
  |     4        8.639115       -0.639115        3.847447        4.781674        0.009994
  |     5        8.649385       -0.649385        3.845687        4.793800        0.009898
  |     6        8.649365       -0.649365        3.845680        4.793784        0.009901
  |     7       20.819096        1.180904        5.983989       12.525450        2.165151        0.144505
  |     8       21.069529        0.930471        6.147399       12.618237        2.162252        0.141641
  |     9        8.644673       -0.644673        3.844588        4.790180        0.009904
  |    10        8.642351       -0.642351        3.856013        4.776532        0.009806
  |    11        8.649420       -0.649420        3.845691        4.793832        0.009897
  |    12        8.649439       -0.649439        3.845695        4.793848        0.009896
  |    13       20.802083        1.197917        5.971611       12.525130        2.160522        0.144820
  |    14       20.766784        1.233216        5.967702       12.510566        2.143639        0.144877
  |    15        8.626245       -0.626245        3.846951        4.769409        0.009885
  |    16        8.641533       -0.641533        3.844598        4.787068        0.009867
  |    17        8.641340       -0.641340        3.847430        4.784062        0.009848
  |    18        8.627301       -0.627301        3.848207        4.769223        0.009872
  |    19       20.769169        1.230831        5.964521       12.512344        2.147157        0.145147
  |    20       20.766751        1.233249        5.967721       12.510555        2.143609        0.144866
  |    21        8.627987       -0.627987        3.848531        4.769572        0.009884
  |    22        8.624243       -0.624243        3.847467        4.766903        0.009873
  |    23        8.641314       -0.641314        3.847432        4.784034        0.009848
  |    24        8.627303       -0.627303        3.848212        4.769220        0.009871
  |    25       20.802079        1.197921        5.971610       12.525129        2.160519        0.144820
  |    26       20.766794        1.233206        5.967699       12.510568        2.143647        0.144879
  |    27        8.626250       -0.626250        3.846951        4.769413        0.009885
  |    28        8.641542       -0.641542        3.844598        4.787077        0.009867
  |    29        8.627298       -0.627298        3.848202        4.769222        0.009873
  |    30        8.641342       -0.641342        3.847428        4.784066        0.009848
  |    31       20.769169        1.230831        5.964521       12.512344        2.147157        0.145147
  |    32       20.766760        1.233240        5.967719       12.510557        2.143617        0.144868
  |    33        8.627993       -0.627993        3.848531        4.769577        0.009884
  |    34        8.624249       -0.624249        3.847467        4.766908        0.009873
  |    35        8.627300       -0.627300        3.848207        4.769220        0.009873
  |    36        8.641316       -0.641316        3.847430        4.784038        0.009849
  |    37       20.764836        1.235164        5.968654       12.511019        2.140086        0.145077
  |    38       20.765333        1.234667        5.967526       12.512846        2.139910        0.145052
  |    39        8.626753       -0.626753        3.848437        4.768435        0.009881
  |    40        8.640516       -0.640516        3.852053        4.778616        0.009847
  |    41        8.627006       -0.627006        3.848679        4.768444        0.009883
  |    42        8.627025       -0.627025        3.848682        4.768462        0.009881
  |    43       20.764500        1.235500        5.966375       12.512293        2.140854        0.144978
  |    44       20.765340        1.234660        5.967513       12.512849        2.139916        0.145062
  |    45        8.625811       -0.625811        3.848421        4.767511        0.009879
  |    46        8.630947       -0.630947        3.849409        4.771652        0.009886
  |    47        8.627064       -0.627064        3.848686        4.768500        0.009878
  |    48        8.627039       -0.627039        3.848681        4.768478        0.009880
  |
  | Total      608.000000        0.000000
 
  Summary of the per-atom spin analysis:
  |
  |  atom   spin      l=0         l=1         l=2         l=3         l=4
  |     1   -0.000000   -0.000000   -0.000000   -0.000000   -0.000000
  |     2   -0.000000   -0.000000   -0.000000   -0.000000   -0.000000
  |     3    0.000000    0.000000   -0.000000   -0.000000    0.000000    0.000000
  |     4   -0.000000   -0.000000   -0.000000   -0.000000
  |     5    0.000000   -0.000000    0.000000    0.000000
  |     6    0.000000    0.000000    0.000000    0.000000
  |     7   -0.000000   -0.000000    0.000000   -0.000000   -0.000000
  |     8   -0.000000   -0.000000   -0.000000   -0.000000   -0.000000
  |     9   -0.000000    0.000000   -0.000000   -0.000000
  |    10    0.000000    0.000000    0.000000    0.000000
  |    11    0.000000    0.000000    0.000000    0.000000
  |    12    0.000000    0.000000    0.000000    0.000000
  |    13   -0.000000   -0.000000   -0.000000   -0.000000    0.000000
  |    14    0.000000    0.000000    0.000000    0.000000   -0.000000
  |    15    0.000000   -0.000000    0.000000   -0.000000
  |    16   -0.000000   -0.000000   -0.000000    0.000000
  |    17   -0.000000    0.000000   -0.000000   -0.000000
  |    18   -0.000000   -0.000000   -0.000000   -0.000000
  |    19    0.000000    0.000000    0.000000    0.000000   -0.000000
  |    20   -0.000000   -0.000000   -0.000000    0.000000   -0.000000
  |    21    0.000000    0.000000    0.000000   -0.000000
  |    22   -0.000000   -0.000000   -0.000000    0.000000
  |    23   -0.000000    0.000000   -0.000000   -0.000000
  |    24    0.000000   -0.000000    0.000000   -0.000000
  |    25   -0.000000   -0.000000    0.000000    0.000000   -0.000000
  |    26    0.000000   -0.000000    0.000000    0.000000   -0.000000
  |    27    0.000000   -0.000000    0.000000   -0.000000
  |    28   -0.000000   -0.000000    0.000000   -0.000000
  |    29   -0.000000   -0.000000    0.000000   -0.000000
  |    30   -0.000000    0.000000   -0.000000   -0.000000
  |    31    0.000000    0.000000    0.000000    0.000000    0.000000
  |    32    0.000000    0.000000    0.000000    0.000000   -0.000000
  |    33    0.000000   -0.000000    0.000000   -0.000000
  |    34    0.000000    0.000000    0.000000    0.000000
  |    35    0.000000   -0.000000    0.000000   -0.000000
  |    36   -0.000000    0.000000   -0.000000   -0.000000
  |    37   -0.000000   -0.000000   -0.000000   -0.000000   -0.000000
  |    38    0.000000    0.000000    0.000000    0.000000    0.000000
  |    39    0.000000   -0.000000    0.000000    0.000000
  |    40    0.000000    0.000000    0.000000   -0.000000
  |    41    0.000000    0.000000    0.000000    0.000000
  |    42    0.000000    0.000000    0.000000   -0.000000
  |    43    0.000000    0.000000    0.000000    0.000000    0.000000
  |    44    0.000000    0.000000    0.000000    0.000000    0.000000
  |    45   -0.000000    0.000000   -0.000000   -0.000000
  |    46    0.000000    0.000000    0.000000   -0.000000
  |    47   -0.000000    0.000000   -0.000000   -0.000000
  |    48    0.000000    0.000000    0.000000   -0.000000
  |
  | Total   -0.000000
 
  Writing Mulliken decomposition to disk ...

  Mulliken analysis                                       :  max(cpu_time)    wall_clock(cpu1)
  | Time for Mulliken analysis                            :         37.062              37.070
  | Total time for Mulliken analysis                      :         37.062              37.070
------------------------------------------------------------

------------------------------------------------------------------------------
  Final output of selected total energy values:

  The following output summarizes some interesting total energy values
  at the end of a run (AFTER all relaxation, molecular dynamics, etc.).

  | Total energy of the DFT / Hartree-Fock s.c.f. calculation      :        -437335.446830519 eV
  | Final zero-broadening corrected energy (caution - metals only) :        -437335.446830519 eV
  | For reference only, the value of 1 Hartree used in FHI-aims is :             27.211384500 eV
  | For reference only, the overall average (free atom contribution
  | + realspace contribution) of the electrostatic potential after
  | s.c.f. convergence is                                          :            -17.016531682 eV

  Before relying on these values, please be sure to understand exactly which
  total energy value is referred to by a given number. Different objects may
  all carry the same name 'total energy'. Definitions:

  Total energy of the DFT / Hartree-Fock s.c.f. calculation:
  | Note that this energy does not include ANY quantities calculated after the
  | s.c.f. cycle, in particular not ANY RPA, MP2, etc. many-body perturbation terms.
  | Scalar relativistic effects have been included in the 'scaled ZORA' approximation.

  Final zero-broadening corrected energy:
  | For metallic systems only, a broadening of the occupation numbers at the Fermi
  | level can be extrapolated back to zero broadening by an electron-gas inspired
  | formula. For all systems that are not real metals, this value can be
  | meaningless and should be avoided.

------------------------------------------------------------------------------
  Methods described in the following list of references were used in this FHI-aims run.
  If you publish the results, please make sure to cite these reference if they apply.
  FHI-aims is an academic code, and for our developers (often, Ph.D. students
  and postdocs), scientific credit in the community is essential.
  Thank you for helping us!

  For any use of FHI-aims, please cite:

    Volker Blum, Ralf Gehrke, Felix Hanke, Paula Havu, Ville Havu,
    Xinguo Ren, Karsten Reuter, and Matthias Scheffler
    'Ab initio molecular simulations with numeric atom-centered orbitals'
    Computer Physics Communications 180, 2175-2196 (2009)
    http://doi.org/10.1016/j.cpc.2009.06.022


  The provided symmetry information was generated with SPGlib:

    Atsushi Togo, Yusuke Seto, Dimitar Pashov
    SPGlib 1.7.3 obtained from http://spglib.sourceforge.net
    Licence: New BSD license
    Copyright (C) 2008 Atsushi Togo


  The ELSI infrastructure was used in your run to solve the Kohn-Sham electronic structure.
  Please check out https://wordpress.elsi-interchange.org to learn more.
  If scalability is important for your project, please acknowledge ELSI by citing:

    V. W-z. Yu, F. Corsetti, A. Garcia, W. P. Huhn, M. Jacquelin, W. Jia,
    B. Lange, L. Lin, J. Lu, W. Mi, A. Seifitokaldani, A. Vazquez-Mayagoitia,
    C. Yang, H. Yang, and V. Blum
    'ELSI: A unified software interface for Kohn-Sham electronic structure solvers'
    Computer Physics Communications 222, 267-285 (2018).
    http://doi.org/10.1016/j.cpc.2017.09.007


  For the real-space grid partitioning and parallelization used in this calculation, please cite:

    Ville Havu, Volker Blum, Paula Havu, and Matthias Scheffler,
    'Efficient O(N) integration for all-electron electronic structure calculation'
    'using numerically tabulated basis functions'
    Journal of Computational Physics 228, 8367-8379 (2009).
    http://doi.org/10.1016/j.jcp.2009.08.008

  Of course, there are many other important community references, e.g., those cited in the
  above references. Our list is limited to references that describe implementations in the
  FHI-aims code. The reason is purely practical (length of this list) - please credit others as well.

------------------------------------------------------------
          Leaving FHI-aims.
          Date     :  20241021, Time     :  120943.795

          Computational steps:
          | Number of self-consistency cycles          :           19
          | Number of SCF (re)initializations          :            1

          Detailed time accounting                     :  max(cpu_time)    wall_clock(cpu1)
          | Total time                                  :      466.959 s         467.010 s
          | Preparation time                            :        0.810 s           0.810 s
          | Boundary condition initalization            :        0.074 s           0.073 s
          | Grid partitioning                           :        0.267 s           0.267 s
          | Preloading free-atom quantities on grid     :        1.609 s           1.609 s
          | Free-atom superposition energy              :        0.128 s           0.128 s
          | Total time for integrations                 :      132.267 s         132.274 s
          | Total time for solution of K.-S. equations  :      136.795 s         136.811 s
          | Total time for density update               :      131.008 s         131.014 s
          | Total time for mixing                       :        0.114 s           0.113 s
          | Total time for Hartree multipole update     :        0.118 s           0.119 s
          | Total time for Hartree multipole sum        :        7.698 s           7.698 s
          | Total time for total energy evaluation      :        0.046 s           0.058 s
          | Total time for scaled ZORA corrections      :       19.094 s          19.096 s
          | Total time for Mulliken analysis            :       37.069 s          37.070 s

          Partial memory accounting:
          | Residual value for overall tracked memory usage across tasks:     0.000000 MB (should be 0.000000 MB)
          | Peak values for overall tracked memory usage:
          |   Minimum:      158.200 MB (on task  0 after allocating eval_tmp)
          |   Maximum:      173.176 MB (on task  8 after allocating eval_tmp)
          |   Average:      167.555 MB
          | Largest tracked array allocation:
          |   Minimum:       36.253 MB (hamiltonian on task  0)
          |   Maximum:       36.253 MB (hamiltonian on task  0)
          |   Average:       36.253 MB
          Note:  These values currently only include a subset of arrays which are explicitly tracked.
          The "true" memory usage will be greater.

          Have a nice day.
------------------------------------------------------------
