------------------------------------------------------------
          Invoking FHI-aims ...

          When using FHI-aims, please cite the following reference:

            Volker Blum, Ralf Gehrke, Felix Hanke, Paula Havu,
            Ville Havu, Xinguo Ren, Karsten Reuter, and Matthias Scheffler,
            'Ab Initio Molecular Simulations with Numeric Atom-Centered Orbitals',
            Computer Physics Communications 180, 2175-2196 (2009)

          In addition, many other developments in FHI-aims are likely important for
          your particular application. If so, please cite them. A partial list of references
          is written at the end of this file. Thank you for giving credit to the authors
          of these developments.

          For general information about FHI-aims please find us at

            https://fhi-aims.org

          Online tutorials can be found at

            https://fhi-aims-club.gitlab.io/tutorials/tutorials-overview/

          For any questions about FHI-aims, please visit our slack channel at

            https://fhi-aims.slack.com

          and our main development and support site at

            https://aims-git.rz-berlin.mpg.de .

          The latter site, in particular, has a wiki to collect information, as well
          as an issue tracker to log discussions, suggest improvements, and report issues
          or bugs. https://aims-git.rz-berlin.mpg.de is also the main development site
          of the project and all new and updated code versions can be obtained there.
          Please send an email to aims-coordinators@fhi-berlin.mpg.de and we will add
          you to these sites. They are for you and everyone is welcome there.

------------------------------------------------------------



  Date     :  20241104, Time     :  130241.398
  Time zero on CPU 1             :   0.361728000000000E+00  s.
  Internal wall clock time zero  :           499957361.398  s.

  FHI-aims created a unique identifier for this run for later identification
  aims_uuid : 0F46C447-8719-40B2-A5DD-EA25616B9DC1

  Build configuration of the current instance of FHI-aims
  -------------------------------------------------------
  FHI-aims version      : 240605
  Commit number         : b001b2e18
  CMake host system     : Linux-6.5.0-41-generic
  CMake version         : 3.22.1
  Fortran compiler      : /opt/intel/oneapi/mpi/2021.12/bin/mpiifort (IntelLLVM) version 2024.1.0
  Fortran compiler flags: -fc=ifx -O3 -ip -fp-model precise
  C compiler            : /opt/intel/oneapi/mpi/2021.12/bin/mpiicc (IntelLLVM) version 2024.1.0
  C compiler flags      : -cc=icx -O3 -ip -fp-model precise -std=gnu99
  C++ compiler          : /opt/intel/oneapi/mpi/2021.12/bin/mpiicpc (IntelLLVM) version 2024.1.0
  C++ compiler flags    : -cxx=icpx -O3 -ip -fp-model precise -std=c++11
  HIP compiler          :
  HIP compiler flags    :
  HIP GPU arch          :
  Using MPI
  Using ScaLAPACK
  Using LibXC
  Using i-PI
  Using RLSY
  Linking against: /opt/intel/oneapi/mkl/2024.1/lib/intel64/libmkl_intel_lp64.so
                   /opt/intel/oneapi/mkl/2024.1/lib/intel64/libmkl_sequential.so
                   /opt/intel/oneapi/mkl/2024.1/lib/intel64/libmkl_core.so
                   /opt/intel/oneapi/mkl/2024.1/lib/intel64/libmkl_blacs_intelmpi_lp64.so
                   /opt/intel/oneapi/mkl/2024.1/lib/intel64/libmkl_scalapack_lp64.so
                   /opt/intel/oneapi/mkl/2024.1/lib/intel64/libmkl_core.so

  Using       32 parallel tasks.
  Task        0 on host RSL-arvutus reporting.
  Task        1 on host RSL-arvutus reporting.
  Task        2 on host RSL-arvutus reporting.
  Task        3 on host RSL-arvutus reporting.
  Task        4 on host RSL-arvutus reporting.
  Task        5 on host RSL-arvutus reporting.
  Task        6 on host RSL-arvutus reporting.
  Task        7 on host RSL-arvutus reporting.
  Task        8 on host RSL-arvutus reporting.
  Task        9 on host RSL-arvutus reporting.
  Task       10 on host RSL-arvutus reporting.
  Task       11 on host RSL-arvutus reporting.
  Task       12 on host RSL-arvutus reporting.
  Task       13 on host RSL-arvutus reporting.
  Task       14 on host RSL-arvutus reporting.
  Task       15 on host RSL-arvutus reporting.
  Task       16 on host RSL-arvutus reporting.
  Task       17 on host RSL-arvutus reporting.
  Task       18 on host RSL-arvutus reporting.
  Task       19 on host RSL-arvutus reporting.
  Task       20 on host RSL-arvutus reporting.
  Task       21 on host RSL-arvutus reporting.
  Task       22 on host RSL-arvutus reporting.
  Task       23 on host RSL-arvutus reporting.
  Task       24 on host RSL-arvutus reporting.
  Task       25 on host RSL-arvutus reporting.
  Task       26 on host RSL-arvutus reporting.
  Task       27 on host RSL-arvutus reporting.
  Task       28 on host RSL-arvutus reporting.
  Task       29 on host RSL-arvutus reporting.
  Task       30 on host RSL-arvutus reporting.
  Task       31 on host RSL-arvutus reporting.

  Memory overcommitment is allowed on your operating system.

  Obtaining array dimensions for all initial allocations:
  
  -----------------------------------------------------------------------
  Parsing control.in (first pass over file, find array dimensions only).
  The contents of control.in will be repeated verbatim below
  unless switched off by setting 'verbatim_writeout .false.' .
  in the first line of control.in .
  -----------------------------------------------------------------------
  
    xc              pbe
    relativistic    zora scalar 1.0e-12
    KS_method	  serial
    k_grid          3 3 5
  
    spin		  none
  
  ################################################################################
  #
  #  FHI-aims code project
  #  VB, Fritz-Haber Institut, 2009
  #
  #  Suggested "light" defaults for Ti atom (to be pasted into control.in file)
  #  Be sure to double-check any results obtained with these settings for post-processing,
  #  e.g., with the "tight" defaults and larger basis sets.
  #
  ################################################################################
    species        Ti
  #     global species definitions
      nucleus             22
      mass                47.867
  #
      l_hartree           4
  #
      cut_pot             3.5          1.5  1.0
      basis_dep_cutoff    1e-4
  #
      radial_base         48 5.0
      radial_multiplier   1
      angular_grids       specified
        division   0.5171   50
        division   0.9824  110
        division   1.2917  194
        division   1.4940  302
  #      division   1.6934  434
  #      division   1.8425  590
  #      division   2.1901  770
  #      division   2.2896  974
  #      division   2.8244 1202
  #      outer_grid  974
        outer_grid  302
  ################################################################################
  #
  #  Definition of "minimal" basis
  #
  ################################################################################
  #     valence basis states
      valence      4  s   2.
      valence      3  p   6.
      valence      3  d   2.
  #     ion occupancy
      ion_occ      4  s   1.
      ion_occ      3  p   6.
      ion_occ      3  d   1.
  ################################################################################
  #
  #  Suggested additional basis functions. For production calculations,
  #  uncomment them one after another (the most important basis functions are
  #  listed first).
  #
  #  Constructed for dimers: 1.6 A, 1.85 A, 2.5 A, 3.25 A, 4.25 A
  #
  ################################################################################
  #  "First tier" - improvements: -396.25 meV to -19.41 meV
       hydro 4 f 8
       hydro 3 d 2.7
       ionic 4 p auto
  #     hydro 5 g 11.6
       ionic 4 s auto
  #  "Second tier" - improvements: -16.30 meV to -2.03 meV
  #     hydro 3 d 4.4
  #     hydro 6 h 16
  #     hydro 4 f 9.4
  #     hydro 4 p 4.5
  #     hydro 1 s 0.5
  #  "Third tier" - improvements: -6.28 meV to -0.37 meV
  #     hydro 4 d 6.4
  #     hydro 4 f 10
  #     hydro 5 g 12
  #     hydro 2 p 1.7
  #     hydro 6 h 16.4
  #     hydro 4 s 3.8
  #  Further basis functions: -0.45 meV and smaller improvements
  #     hydro 3 d 8.8
  #     hydro 5 p 18
  #     hydro 4 f 22.4
  #     hydro 5 f 7.2  # -0.16 meV
  #     hydro 3 d 2.1  # -0.11 meV
  #     hydro 5 g 7.4  # -0.09 meV
  
  
  ################################################################################
  #
  #  FHI-aims code project
  #  VB, Fritz-Haber Institut, 2009
  #
  #  Suggested "light" defaults for O atom (to be pasted into control.in file)
  #  Be sure to double-check any results obtained with these settings for post-processing,
  #  e.g., with the "tight" defaults and larger basis sets.
  #
  ################################################################################
    species        O
  #     global species definitions
      nucleus             8
      mass                15.9994
  #
      l_hartree           4
  #
      cut_pot             3.5  1.5  1.0
      basis_dep_cutoff    1e-4
  #
      radial_base         36 5.0
      radial_multiplier   1
       angular_grids specified
        division   0.2659   50
        division   0.4451  110
        division   0.6052  194
        division   0.7543  302
  #      division   0.8014  434
  #      division   0.8507  590
  #      division   0.8762  770
  #      division   0.9023  974
  #      division   1.2339 1202
  #      outer_grid 974
        outer_grid 302
  ################################################################################
  #
  #  Definition of "minimal" basis
  #
  ################################################################################
  #     valence basis states
      valence      2  s   2.
      valence      2  p   4.
  #     ion occupancy
      ion_occ      2  s   1.
      ion_occ      2  p   3.
  ################################################################################
  #
  #  Suggested additional basis functions. For production calculations,
  #  uncomment them one after another (the most important basis functions are
  #  listed first).
  #
  #  Constructed for dimers: 1.0 A, 1.208 A, 1.5 A, 2.0 A, 3.0 A
  #
  ################################################################################
  #  "First tier" - improvements: -699.05 meV to -159.38 meV
       hydro 2 p 1.8
       hydro 3 d 7.6
       hydro 3 s 6.4
  #  "Second tier" - improvements: -49.91 meV to -5.39 meV
  #     hydro 4 f 11.6
  #     hydro 3 p 6.2
  #     hydro 3 d 5.6
  #     hydro 5 g 17.6
  #     hydro 1 s 0.75
  #  "Third tier" - improvements: -2.83 meV to -0.50 meV
  #     ionic 2 p auto
  #     hydro 4 f 10.8
  #     hydro 4 d 4.7
  #     hydro 2 s 6.8
  #  "Fourth tier" - improvements: -0.40 meV to -0.12 meV
  #     hydro 3 p 5
  #     hydro 3 s 3.3
  #     hydro 5 g 15.6
  #     hydro 4 f 17.6
  #     hydro 4 d 14
  # Further basis functions - -0.08 meV and below
  #     hydro 3 s 2.1
  #     hydro 4 d 11.6
  #     hydro 3 p 16
  #     hydro 2 s 17.2
  
  ################################################################################
  #
  #  "Core" basis functions and numerical settings for O atom.
  #  Based on “tight” defaults (V. Blum, 2009).
  #
  ################################################################################
    species        O1
  #     global species definitions
      nucleus             8.
      mass                15.9994
  #
      l_hartree           6
  #
      cut_pot             4.0  2.0  1.0
      basis_dep_cutoff    1e-4
  #
      radial_base         36 7.0
      radial_multiplier   2
       angular_grids specified
        division   0.1817   50
        division   0.3417  110
        division   0.4949  194
        division   0.6251  302
        division   0.8014  434
  #      division   0.8507  590
  #      division   0.8762  770
  #      division   0.9023  974
  #      division   1.2339 1202
  #      outer_grid 974
        outer_grid  434
  ################################################################################
  #
  #  Definition of "minimal" basis
  #
  ################################################################################
  #     valence basis states
      valence      2  s   2.
      valence      2  p   4.
  #     ion occupancy
      ion_occ      2  s   1.
      ion_occ      2  p   3.
  ################################################################################
  #
  #  Suggested additional basis functions. For production calculations,
  #  uncomment them one after another (the most important basis functions are
  #  listed first).
  #
  #  Constructed for dimers: 1.0 A, 1.208 A, 1.5 A, 2.0 A, 3.0 A
  #
  ################################################################################
  #  "First tier" - improvements: -699.05 meV to -159.38 meV
       hydro 2 p 1.8
       hydro 3 d 7.6
       hydro 3 s 6.4
  #  "Second tier" - improvements: -49.91 meV to -5.39 meV
       hydro 4 f 11.6
       hydro 3 p 6.2
       hydro 3 d 5.6
       hydro 5 g 17.6
       hydro 1 s 0.75
  #  "Third tier" - improvements: -2.83 meV to -0.50 meV
       ionic 2 p auto
       hydro 4 f 10.8
       hydro 4 d 4.7
       hydro 2 s 6.8
  #  "Fourth tier" - improvements: -0.40 meV to -0.12 meV
  #     hydro 3 p 5
  #     hydro 3 s 3.3
  #     hydro 5 g 15.6
  #     hydro 4 f 17.6
  #     hydro 4 d 14
  # Further basis functions - -0.08 meV and below
  #     hydro 3 s 2.1
  #     hydro 4 d 11.6
  #     hydro 3 p 16
  #     hydro 2 s 17.2
  
  # Additional basis functions for atom with a core hole
       hydro 1 s 12.0
       hydro 1 s 10.0
       hydro 1 s 6.0
       hydro 2 s 10.0
       hydro 2 p 8.0
       hydro 2 p 6.0
       hydro 3 d 8.0
  
  -----------------------------------------------------------------------
  Completed first pass over input file control.in .
  -----------------------------------------------------------------------
  
  
  -----------------------------------------------------------------------
  Parsing geometry.in (first pass over file, find array dimensions only).
  The contents of geometry.in will be repeated verbatim below
  unless switched off by setting 'verbatim_writeout .false.' .
  in the first line of geometry.in .
  -----------------------------------------------------------------------
  
  lattice_vector 13.929185 0.000365 0.000000
  lattice_vector 0.000365 13.929260 0.000000
  lattice_vector 0.000000 0.000000 8.918648
  
  atom_frac 1.000000 0.000000 0.000000 Ti
  atom_frac 0.166667 0.166667 0.166667 Ti
  atom_frac 0.101853 0.101856 0.000000 O1
  atom_frac 0.231481 0.231478 0.000000 O
  atom_frac 0.064815 0.268521 0.166667 O
  atom_frac 0.268518 0.064812 0.166667 O
  atom_frac 1.000000 0.000000 0.333333 Ti
  atom_frac 0.166667 0.166667 0.500000 Ti
  atom_frac 0.101853 0.101856 0.333333 O
  atom_frac 0.231481 0.231478 0.333333 O
  atom_frac 0.064815 0.268521 0.500000 O
  atom_frac 0.268518 0.064812 0.500000 O
  atom_frac 1.000000 0.000000 0.666667 Ti
  atom_frac 0.166667 0.166667 0.833333 Ti
  atom_frac 0.101853 0.101856 0.666667 O
  atom_frac 0.231481 0.231478 0.666667 O
  atom_frac 0.064815 0.268521 0.833333 O
  atom_frac 0.268518 0.064812 0.833333 O
  atom_frac 1.000000 0.333333 0.000000 Ti
  atom_frac 0.166667 0.500000 0.166667 Ti
  atom_frac 0.101853 0.435189 0.000000 O
  atom_frac 0.231481 0.564811 0.000000 O
  atom_frac 0.064815 0.601854 0.166667 O
  atom_frac 0.268518 0.398146 0.166667 O
  atom_frac 1.000000 0.333333 0.333333 Ti
  atom_frac 0.166667 0.500000 0.500000 Ti
  atom_frac 0.101853 0.435189 0.333333 O
  atom_frac 0.231481 0.564811 0.333333 O
  atom_frac 0.064815 0.601854 0.500000 O
  atom_frac 0.268518 0.398146 0.500000 O
  atom_frac 1.000000 0.333333 0.666667 Ti
  atom_frac 0.166667 0.500000 0.833333 Ti
  atom_frac 0.101853 0.435189 0.666667 O
  atom_frac 0.231481 0.564811 0.666667 O
  atom_frac 0.064815 0.601854 0.833333 O
  atom_frac 0.268518 0.398146 0.833333 O
  atom_frac 1.000000 0.666667 0.000000 Ti
  atom_frac 0.166667 0.833333 0.166667 Ti
  atom_frac 0.101853 0.768522 0.000000 O
  atom_frac 0.231481 0.898144 0.000000 O
  atom_frac 0.064815 0.935188 0.166667 O
  atom_frac 0.268518 0.731479 0.166667 O
  atom_frac 1.000000 0.666667 0.333333 Ti
  atom_frac 0.166667 0.833333 0.500000 Ti
  atom_frac 0.101853 0.768522 0.333333 O
  atom_frac 0.231481 0.898144 0.333333 O
  atom_frac 0.064815 0.935188 0.500000 O
  atom_frac 0.268518 0.731479 0.500000 O
  atom_frac 1.000000 0.666667 0.666667 Ti
  atom_frac 0.166667 0.833333 0.833333 Ti
  atom_frac 0.101853 0.768522 0.666667 O
  atom_frac 0.231481 0.898144 0.666667 O
  atom_frac 0.064815 0.935188 0.833333 O
  atom_frac 0.268518 0.731479 0.833333 O
  atom_frac 0.333333 0.000000 0.000000 Ti
  atom_frac 0.500000 0.166667 0.166667 Ti
  atom_frac 0.435186 0.101856 0.000000 O
  atom_frac 0.564814 0.231478 0.000000 O
  atom_frac 0.398149 0.268521 0.166667 O
  atom_frac 0.601851 0.064812 0.166667 O
  atom_frac 0.333333 0.000000 0.333333 Ti
  atom_frac 0.500000 0.166667 0.500000 Ti
  atom_frac 0.435186 0.101856 0.333333 O
  atom_frac 0.564814 0.231478 0.333333 O
  atom_frac 0.398149 0.268521 0.500000 O
  atom_frac 0.601851 0.064812 0.500000 O
  atom_frac 0.333333 0.000000 0.666667 Ti
  atom_frac 0.500000 0.166667 0.833333 Ti
  atom_frac 0.435186 0.101856 0.666667 O
  atom_frac 0.564814 0.231478 0.666667 O
  atom_frac 0.398149 0.268521 0.833333 O
  atom_frac 0.601851 0.064812 0.833333 O
  atom_frac 0.333333 0.333333 0.000000 Ti
  atom_frac 0.500000 0.500000 0.166667 Ti
  atom_frac 0.435186 0.435189 0.000000 O
  atom_frac 0.564814 0.564811 0.000000 O
  atom_frac 0.398149 0.601854 0.166667 O
  atom_frac 0.601851 0.398146 0.166667 O
  atom_frac 0.333333 0.333333 0.333333 Ti
  atom_frac 0.500000 0.500000 0.500000 Ti
  atom_frac 0.435186 0.435189 0.333333 O
  atom_frac 0.564814 0.564811 0.333333 O
  atom_frac 0.398149 0.601854 0.500000 O
  atom_frac 0.601851 0.398146 0.500000 O
  atom_frac 0.333333 0.333333 0.666667 Ti
  atom_frac 0.500000 0.500000 0.833333 Ti
  atom_frac 0.435186 0.435189 0.666667 O
  atom_frac 0.564814 0.564811 0.666667 O
  atom_frac 0.398149 0.601854 0.833333 O
  atom_frac 0.601851 0.398146 0.833333 O
  atom_frac 0.333333 0.666667 0.000000 Ti
  atom_frac 0.500000 0.833333 0.166667 Ti
  atom_frac 0.435186 0.768522 0.000000 O
  atom_frac 0.564814 0.898144 0.000000 O
  atom_frac 0.398149 0.935188 0.166667 O
  atom_frac 0.601851 0.731479 0.166667 O
  atom_frac 0.333333 0.666667 0.333333 Ti
  atom_frac 0.500000 0.833333 0.500000 Ti
  atom_frac 0.435186 0.768522 0.333333 O
  atom_frac 0.564814 0.898144 0.333333 O
  atom_frac 0.398149 0.935188 0.500000 O
  atom_frac 0.601851 0.731479 0.500000 O
  atom_frac 0.333333 0.666667 0.666667 Ti
  atom_frac 0.500000 0.833333 0.833333 Ti
  atom_frac 0.435186 0.768522 0.666667 O
  atom_frac 0.564814 0.898144 0.666667 O
  atom_frac 0.398149 0.935188 0.833333 O
  atom_frac 0.601851 0.731479 0.833333 O
  atom_frac 0.666667 0.000000 0.000000 Ti
  atom_frac 0.833333 0.166667 0.166667 Ti
  atom_frac 0.768519 0.101856 0.000000 O
  atom_frac 0.898147 0.231478 0.000000 O
  atom_frac 0.731482 0.268521 0.166667 O
  atom_frac 0.935185 0.064812 0.166667 O
  atom_frac 0.666667 0.000000 0.333333 Ti
  atom_frac 0.833333 0.166667 0.500000 Ti
  atom_frac 0.768519 0.101856 0.333333 O
  atom_frac 0.898147 0.231478 0.333333 O
  atom_frac 0.731482 0.268521 0.500000 O
  atom_frac 0.935185 0.064812 0.500000 O
  atom_frac 0.666667 0.000000 0.666667 Ti
  atom_frac 0.833333 0.166667 0.833333 Ti
  atom_frac 0.768519 0.101856 0.666667 O
  atom_frac 0.898147 0.231478 0.666667 O
  atom_frac 0.731482 0.268521 0.833333 O
  atom_frac 0.935185 0.064812 0.833333 O
  atom_frac 0.666667 0.333333 0.000000 Ti
  atom_frac 0.833333 0.500000 0.166667 Ti
  atom_frac 0.768519 0.435189 0.000000 O
  atom_frac 0.898147 0.564811 0.000000 O
  atom_frac 0.731482 0.601854 0.166667 O
  atom_frac 0.935185 0.398146 0.166667 O
  atom_frac 0.666667 0.333333 0.333333 Ti
  atom_frac 0.833333 0.500000 0.500000 Ti
  atom_frac 0.768519 0.435189 0.333333 O
  atom_frac 0.898147 0.564811 0.333333 O
  atom_frac 0.731482 0.601854 0.500000 O
  atom_frac 0.935185 0.398146 0.500000 O
  atom_frac 0.666667 0.333333 0.666667 Ti
  atom_frac 0.833333 0.500000 0.833333 Ti
  atom_frac 0.768519 0.435189 0.666667 O
  atom_frac 0.898147 0.564811 0.666667 O
  atom_frac 0.731482 0.601854 0.833333 O
  atom_frac 0.935185 0.398146 0.833333 O
  atom_frac 0.666667 0.666667 0.000000 Ti
  atom_frac 0.833333 0.833333 0.166667 Ti
  atom_frac 0.768519 0.768522 0.000000 O
  atom_frac 0.898147 0.898144 0.000000 O
  atom_frac 0.731482 0.935188 0.166667 O
  atom_frac 0.935185 0.731479 0.166667 O
  atom_frac 0.666667 0.666667 0.333333 Ti
  atom_frac 0.833333 0.833333 0.500000 Ti
  atom_frac 0.768519 0.768522 0.333333 O
  atom_frac 0.898147 0.898144 0.333333 O
  atom_frac 0.731482 0.935188 0.500000 O
  atom_frac 0.935185 0.731479 0.500000 O
  atom_frac 0.666667 0.666667 0.666667 Ti
  atom_frac 0.833333 0.833333 0.833333 Ti
  atom_frac 0.768519 0.768522 0.666667 O
  atom_frac 0.898147 0.898144 0.666667 O
  atom_frac 0.731482 0.935188 0.833333 O
  atom_frac 0.935185 0.731479 0.833333 O
  
  -----------------------------------------------------------------------
  Completed first pass over input file geometry.in .
  -----------------------------------------------------------------------
  

  Basic array size parameters:
  | Number of species                 :        3
  | Number of atoms                   :      162
  | Number of lattice vectors         :        3
  | Max. basis fn. angular momentum   :        4
  | Max. atomic/ionic basis occupied n:        4
  | Max. number of basis fn. types    :        3
  | Max. radial fns per species/type  :       18
  | Max. logarithmic grid size        :     1383
  | Max. radial integration grid size :       73
  | Max. angular integration grid size:      434
  | Max. angular grid division number :        8
  | Radial grid for Hartree potential :     1383
  | Number of spin channels           :        1

------------------------------------------------------------
          Reading file control.in.
------------------------------------------------------------
  XC: Using PBE gradient-corrected functionals.
  Scalar relativistic treatment of kinetic energy: ZORA.
  Threshold value for ZORA:   0.100000E-11
  Kohn-Sham eigenvalues and eigenfunctions calculated by LAPACK via ELSI.
  Found k-point grid:         3         3         5
  Spin treatment: No spin polarisation.
 
  Reading configuration options for species Ti                  .
  | Found nuclear charge :  22.0000
  | Found atomic mass :    47.8670000000000      amu
  | Found l_max for Hartree potential  :   4
  | Found cutoff potl. onset [A], width [A], scale factor :    3.50000    1.50000    1.00000
  | Threshold for basis-dependent cutoff potential is   0.100000E-03
  | Found data for basic radial integration grid :    48 points, outermost radius =    5.000 A
  | Found multiplier for basic radial grid :   1
  | Found angular grid specification: user-specified.
  | Specified grid contains     5 separate shells.
  | Check grid settings after all constraints further below.
  | Found free-atom valence shell :  4 s   2.000
  | Found free-atom valence shell :  3 p   6.000
  | Found free-atom valence shell :  3 d   2.000
  | Found free-ion valence shell :  4 s   1.000
  | Found free-ion valence shell :  3 p   6.000
  | Found free-ion valence shell :  3 d   1.000
  | Found hydrogenic basis function :  4 f   8.000
  | Found hydrogenic basis function :  3 d   2.700
  | Found ionic basis function :  4 p , default cutoff radius.
  | Found ionic basis function :  4 s , default cutoff radius.
 | Encountered keyword species, ending the description of species Ti                  .
  Species Ti                  : Missing cutoff potential type.
  Defaulting to exp(1/x)/(1-x)^2 type cutoff potential.
  Species Ti: No 'logarithmic' tag. Using default grid for free atom:
  | Default logarithmic grid data [bohr] : 0.1000E-03 0.1000E+03 0.1012E+01
  | Will include ionic basis functions of  2.0-fold positive Ti                   ion.
  Species Ti: On-site basis accuracy parameter (for Gram-Schmidt orthonormalisation) not specified.
  Using default value basis_acc =  0.1000000E-03.
  Species Ti                  : Using default innermost maximum threshold i_radial=  2 for radial functions.
  Species Ti                  : Default cutoff onset for free atom density etc. : 0.35000000E+01 AA.
  Species Ti                  : Basic radial grid will be enhanced according to radial_multiplier =   1, to contain    48 grid points.
 
  Reading configuration options for species O                   .
  | Found nuclear charge :   8.0000
  | Found atomic mass :    15.9994000000000      amu
  | Found l_max for Hartree potential  :   4
  | Found cutoff potl. onset [A], width [A], scale factor :    3.50000    1.50000    1.00000
  | Threshold for basis-dependent cutoff potential is   0.100000E-03
  | Found data for basic radial integration grid :    36 points, outermost radius =    5.000 A
  | Found multiplier for basic radial grid :   1
  | Found angular grid specification: user-specified.
  | Specified grid contains     5 separate shells.
  | Check grid settings after all constraints further below.
  | Found free-atom valence shell :  2 s   2.000
  | Found free-atom valence shell :  2 p   4.000
  | Found free-ion valence shell :  2 s   1.000
  | Found free-ion valence shell :  2 p   3.000
  | Found hydrogenic basis function :  2 p   1.800
  | Found hydrogenic basis function :  3 d   7.600
  | Found hydrogenic basis function :  3 s   6.400
 | Encountered keyword species, ending the description of species O                   .
  Species O                   : Missing cutoff potential type.
  Defaulting to exp(1/x)/(1-x)^2 type cutoff potential.
  Species O : No 'logarithmic' tag. Using default grid for free atom:
  | Default logarithmic grid data [bohr] : 0.1000E-03 0.1000E+03 0.1012E+01
  Species O : On-site basis accuracy parameter (for Gram-Schmidt orthonormalisation) not specified.
  Using default value basis_acc =  0.1000000E-03.
  Species O                   : Using default innermost maximum threshold i_radial=  2 for radial functions.
  Species O                   : Default cutoff onset for free atom density etc. : 0.35000000E+01 AA.
  Species O                   : Basic radial grid will be enhanced according to radial_multiplier =   1, to contain    36 grid points.
 
  Reading configuration options for species O1                  .
  | Found nuclear charge :   8.0000
  | Found atomic mass :    15.9994000000000      amu
  | Found l_max for Hartree potential  :   6
  | Found cutoff potl. onset [A], width [A], scale factor :    4.00000    2.00000    1.00000
  | Threshold for basis-dependent cutoff potential is   0.100000E-03
  | Found data for basic radial integration grid :    36 points, outermost radius =    7.000 A
  | Found multiplier for basic radial grid :   2
  | Found angular grid specification: user-specified.
  | Specified grid contains     6 separate shells.
  | Check grid settings after all constraints further below.
  | Found free-atom valence shell :  2 s   2.000
  | Found free-atom valence shell :  2 p   4.000
  | Found free-ion valence shell :  2 s   1.000
  | Found free-ion valence shell :  2 p   3.000
  | Found hydrogenic basis function :  2 p   1.800
  | Found hydrogenic basis function :  3 d   7.600
  | Found hydrogenic basis function :  3 s   6.400
  | Found hydrogenic basis function :  4 f  11.600
  | Found hydrogenic basis function :  3 p   6.200
  | Found hydrogenic basis function :  3 d   5.600
  | Found hydrogenic basis function :  5 g  17.600
  | Found hydrogenic basis function :  1 s   0.750
  | Found ionic basis function :  2 p , default cutoff radius.
  | Found hydrogenic basis function :  4 f  10.800
  | Found hydrogenic basis function :  4 d   4.700
  | Found hydrogenic basis function :  2 s   6.800
  | Found hydrogenic basis function :  1 s  12.000
  | Found hydrogenic basis function :  1 s  10.000
  | Found hydrogenic basis function :  1 s   6.000
  | Found hydrogenic basis function :  2 s  10.000
  | Found hydrogenic basis function :  2 p   8.000
  | Found hydrogenic basis function :  2 p   6.000
  | Found hydrogenic basis function :  3 d   8.000
  Species O1                  : Missing cutoff potential type.
  Defaulting to exp(1/x)/(1-x)^2 type cutoff potential.
  Species O1: No 'logarithmic' tag. Using default grid for free atom:
  | Default logarithmic grid data [bohr] : 0.1000E-03 0.1000E+03 0.1012E+01
  | Will include ionic basis functions of  2.0-fold positive O1                   ion.
  Species O1: On-site basis accuracy parameter (for Gram-Schmidt orthonormalisation) not specified.
  Using default value basis_acc =  0.1000000E-03.
  Species O1                  : Using default innermost maximum threshold i_radial=  2 for radial functions.
  Species O1                  : Default cutoff onset for free atom density etc. : 0.40000000E+01 AA.
  Species O1                  : Basic radial grid will be enhanced according to radial_multiplier =   2, to contain    73 grid points.
 
  Finished reading input file 'control.in'.
 
------------------------------------------------------------


------------------------------------------------------------
          Reading geometry description geometry.in.
------------------------------------------------------------
  | The smallest distance between any two atoms is         1.95946585 AA.
  | The first atom of this pair is atom number                    125 .
  | The second atom of this pair is atom number                   139 .
  | Wigner-Seitz cell of the first atom image           0     0     0 .
  | (The Wigner-Seitz cell of the second atom is 0 0 0  by definition.)

  Symmetry information by spglib:
  | Precision set to  0.1E-04
  | Number of Operations  : 2
  | Space group           : 6
  | International         : Pm
  | Schoenflies           : Cs^1
  Input structure read successfully.
  The structure contains      162 atoms,  and a total of       2052.000 electrons.

  Input geometry:
  | Unit cell:
  |       13.92918500        0.00036500        0.00000000
  |        0.00036500       13.92926000        0.00000000
  |        0.00000000        0.00000000        8.91864800
  | Atomic structure:
  |       Atom                x [A]            y [A]            z [A]
  |    1: Species Ti           13.92918500        0.00036500        0.00000000
  |    2: Species Ti            2.32159631        2.32160881        1.48644431
  |    3: Species O1            1.41876646        1.41881588        0.00000000
  |    4: Species O             3.22442616        3.22440174        0.00000000
  |    5: Species O             0.90291814        3.74032248        1.48644431
  |    6: Species O             3.74026055        0.90288121        1.48644431
  |    7: Species Ti           13.92918500        0.00036500        2.97287969
  |    8: Species Ti            2.32159631        2.32160881        4.45932400
  |    9: Species O             1.41876646        1.41881588        2.97287969
  |   10: Species O             3.22442616        3.22440174        2.97287969
  |   11: Species O             0.90291814        3.74032248        4.45932400
  |   12: Species O             3.74026055        0.90288121        4.45932400
  |   13: Species Ti           13.92918500        0.00036500        5.94576831
  |   14: Species Ti            2.32159631        2.32160881        7.43220369
  |   15: Species O             1.41876646        1.41881588        5.94576831
  |   16: Species O             3.22442616        3.22440174        5.94576831
  |   17: Species O             0.90291814        3.74032248        7.43220369
  |   18: Species O             3.74026055        0.90288121        7.43220369
  |   19: Species Ti           13.92930667        4.64344702        0.00000000
  |   20: Species Ti            2.32171798        6.96469083        1.48644431
  |   21: Species O             1.41888812        6.06189791        0.00000000
  |   22: Species O             3.22454783        7.86748376        0.00000000
  |   23: Species O             0.90303980        8.38340451        1.48644431
  |   24: Species O             3.74038222        5.54597716        1.48644431
  |   25: Species Ti           13.92930667        4.64344702        2.97287969
  |   26: Species Ti            2.32171798        6.96469083        4.45932400
  |   27: Species O             1.41888812        6.06189791        2.97287969
  |   28: Species O             3.22454783        7.86748376        2.97287969
  |   29: Species O             0.90303980        8.38340451        4.45932400
  |   30: Species O             3.74038222        5.54597716        4.45932400
  |   31: Species Ti           13.92930667        4.64344702        5.94576831
  |   32: Species Ti            2.32171798        6.96469083        7.43220369
  |   33: Species O             1.41888812        6.06189791        5.94576831
  |   34: Species O             3.22454783        7.86748376        5.94576831
  |   35: Species O             0.90303980        8.38340451        7.43220369
  |   36: Species O             3.74038222        5.54597716        7.43220369
  |   37: Species Ti           13.92942833        9.28654298        0.00000000
  |   38: Species Ti            2.32183964       11.60777286        1.48644431
  |   39: Species O             1.41900979       10.70497993        0.00000000
  |   40: Species O             3.22466950       12.51056578        0.00000000
  |   41: Species O             0.90316147       13.02650046        1.48644431
  |   42: Species O             3.74050389       10.18905918        1.48644431
  |   43: Species Ti           13.92942833        9.28654298        2.97287969
  |   44: Species Ti            2.32183964       11.60777286        4.45932400
  |   45: Species O             1.41900979       10.70497993        2.97287969
  |   46: Species O             3.22466950       12.51056578        2.97287969
  |   47: Species O             0.90316147       13.02650046        4.45932400
  |   48: Species O             3.74050389       10.18905918        4.45932400
  |   49: Species Ti           13.92942833        9.28654298        5.94576831
  |   50: Species Ti            2.32183964       11.60777286        7.43220369
  |   51: Species O             1.41900979       10.70497993        5.94576831
  |   52: Species O             3.22466950       12.51056578        5.94576831
  |   53: Species O             0.90316147       13.02650046        7.43220369
  |   54: Species O             3.74050389       10.18905918        7.43220369
  |   55: Species Ti            4.64305702        0.00012167        0.00000000
  |   56: Species Ti            6.96465333        2.32173048        1.48644431
  |   57: Species O             6.06182348        1.41893755        0.00000000
  |   58: Species O             7.86748319        3.22452340        0.00000000
  |   59: Species O             5.54598909        3.74044415        1.48644431
  |   60: Species O             8.38331758        0.90300287        1.48644431
  |   61: Species Ti            4.64305702        0.00012167        2.97287969
  |   62: Species Ti            6.96465333        2.32173048        4.45932400
  |   63: Species O             6.06182348        1.41893755        2.97287969
  |   64: Species O             7.86748319        3.22452340        2.97287969
  |   65: Species O             5.54598909        3.74044415        4.45932400
  |   66: Species O             8.38331758        0.90300287        4.45932400
  |   67: Species Ti            4.64305702        0.00012167        5.94576831
  |   68: Species Ti            6.96465333        2.32173048        7.43220369
  |   69: Species O             6.06182348        1.41893755        5.94576831
  |   70: Species O             7.86748319        3.22452340        5.94576831
  |   71: Species O             5.54598909        3.74044415        7.43220369
  |   72: Species O             8.38331758        0.90300287        7.43220369
  |   73: Species Ti            4.64317869        4.64320369        0.00000000
  |   74: Species Ti            6.96477500        6.96481250        1.48644431
  |   75: Species O             6.06194515        6.06201957        0.00000000
  |   76: Species O             7.86760485        7.86760543        0.00000000
  |   77: Species O             5.54611076        8.38352617        1.48644431
  |   78: Species O             8.38343924        5.54609883        1.48644431
  |   79: Species Ti            4.64317869        4.64320369        2.97287969
  |   80: Species Ti            6.96477500        6.96481250        4.45932400
  |   81: Species O             6.06194515        6.06201957        2.97287969
  |   82: Species O             7.86760485        7.86760543        2.97287969
  |   83: Species O             5.54611076        8.38352617        4.45932400
  |   84: Species O             8.38343924        5.54609883        4.45932400
  |   85: Species Ti            4.64317869        4.64320369        5.94576831
  |   86: Species Ti            6.96477500        6.96481250        7.43220369
  |   87: Species O             6.06194515        6.06201957        5.94576831
  |   88: Species O             7.86760485        7.86760543        5.94576831
  |   89: Species O             5.54611076        8.38352617        7.43220369
  |   90: Species O             8.38343924        5.54609883        7.43220369
  |   91: Species Ti            4.64330036        9.28629964        0.00000000
  |   92: Species Ti            6.96489667       11.60789452        1.48644431
  |   93: Species O             6.06206681       10.70510160        0.00000000
  |   94: Species O             7.86772652       12.51068745        0.00000000
  |   95: Species O             5.54623242       13.02662213        1.48644431
  |   96: Species O             8.38356091       10.18918085        1.48644431
  |   97: Species Ti            4.64330036        9.28629964        2.97287969
  |   98: Species Ti            6.96489667       11.60789452        4.45932400
  |   99: Species O             6.06206681       10.70510160        2.97287969
  |  100: Species O             7.86772652       12.51068745        2.97287969
  |  101: Species O             5.54623242       13.02662213        4.45932400
  |  102: Species O             8.38356091       10.18918085        4.45932400
  |  103: Species Ti            4.64330036        9.28629964        5.94576831
  |  104: Species Ti            6.96489667       11.60789452        7.43220369
  |  105: Species O             6.06206681       10.70510160        5.94576831
  |  106: Species O             7.86772652       12.51068745        5.94576831
  |  107: Species O             5.54623242       13.02662213        7.43220369
  |  108: Species O             8.38356091       10.18918085        7.43220369
  |  109: Species Ti            9.28612798        0.00024333        0.00000000
  |  110: Species Ti           11.60771036        2.32185214        1.48644431
  |  111: Species O            10.70488050        1.41905922        0.00000000
  |  112: Species O            12.51054021        3.22464507        0.00000000
  |  113: Species O            10.18904611        3.74056582        1.48644431
  |  114: Species O            13.02638853        0.90312454        1.48644431
  |  115: Species Ti            9.28612798        0.00024333        2.97287969
  |  116: Species Ti           11.60771036        2.32185214        4.45932400
  |  117: Species O            10.70488050        1.41905922        2.97287969
  |  118: Species O            12.51054021        3.22464507        2.97287969
  |  119: Species O            10.18904611        3.74056582        4.45932400
  |  120: Species O            13.02638853        0.90312454        4.45932400
  |  121: Species Ti            9.28612798        0.00024333        5.94576831
  |  122: Species Ti           11.60771036        2.32185214        7.43220369
  |  123: Species O            10.70488050        1.41905922        5.94576831
  |  124: Species O            12.51054021        3.22464507        5.94576831
  |  125: Species O            10.18904611        3.74056582        7.43220369
  |  126: Species O            13.02638853        0.90312454        7.43220369
  |  127: Species Ti            9.28624964        4.64332536        0.00000000
  |  128: Species Ti           11.60783202        6.96493417        1.48644431
  |  129: Species O            10.70500217        6.06214124        0.00000000
  |  130: Species O            12.51066188        7.86772709        0.00000000
  |  131: Species O            10.18916778        8.38364784        1.48644431
  |  132: Species O            13.02651020        5.54622049        1.48644431
  |  133: Species Ti            9.28624964        4.64332536        2.97287969
  |  134: Species Ti           11.60783202        6.96493417        4.45932400
  |  135: Species O            10.70500217        6.06214124        2.97287969
  |  136: Species O            12.51066188        7.86772709        2.97287969
  |  137: Species O            10.18916778        8.38364784        4.45932400
  |  138: Species O            13.02651020        5.54622049        4.45932400
  |  139: Species Ti            9.28624964        4.64332536        5.94576831
  |  140: Species Ti           11.60783202        6.96493417        7.43220369
  |  141: Species O            10.70500217        6.06214124        5.94576831
  |  142: Species O            12.51066188        7.86772709        5.94576831
  |  143: Species O            10.18916778        8.38364784        7.43220369
  |  144: Species O            13.02651020        5.54622049        7.43220369
  |  145: Species Ti            9.28637131        9.28642131        0.00000000
  |  146: Species Ti           11.60795369       11.60801619        1.48644431
  |  147: Species O            10.70512384       10.70522326        0.00000000
  |  148: Species O            12.51078354       12.51080912        0.00000000
  |  149: Species O            10.18928945       13.02674379        1.48644431
  |  150: Species O            13.02663186       10.18930252        1.48644431
  |  151: Species Ti            9.28637131        9.28642131        2.97287969
  |  152: Species Ti           11.60795369       11.60801619        4.45932400
  |  153: Species O            10.70512384       10.70522326        2.97287969
  |  154: Species O            12.51078354       12.51080912        2.97287969
  |  155: Species O            10.18928945       13.02674379        4.45932400
  |  156: Species O            13.02663186       10.18930252        4.45932400
  |  157: Species Ti            9.28637131        9.28642131        5.94576831
  |  158: Species Ti           11.60795369       11.60801619        7.43220369
  |  159: Species O            10.70512384       10.70522326        5.94576831
  |  160: Species O            12.51078354       12.51080912        5.94576831
  |  161: Species O            10.18928945       13.02674379        7.43220369
  |  162: Species O            13.02663186       10.18930252        7.43220369

  Lattice parameters for 3D lattice (in Angstroms) :    13.929185   13.929260    8.918648
  Angle(s) between unit vectors (in degrees)       :    90.000000   90.000000   89.996997


  Quantities derived from the lattice vectors (in Angstrom^-1):
  | Reciprocal lattice vector 1:  0.451081 -0.000012  0.000000
  | Reciprocal lattice vector 2: -0.000012  0.451078  0.000000
  | Reciprocal lattice vector 3:  0.000000  0.000000  0.704500
  | Unit cell volume                               :   0.173042E+04  Angstrom^3

  Fractional coordinates:
                         L1                L2                L3
       atom_frac         1.00000000        0.00000000        0.00000000  Ti
       atom_frac         0.16666700        0.16666700        0.16666700  Ti
       atom_frac         0.10185300        0.10185600        0.00000000  O1
       atom_frac         0.23148100        0.23147800        0.00000000  O
       atom_frac         0.06481500        0.26852100        0.16666700  O
       atom_frac         0.26851800        0.06481200        0.16666700  O
       atom_frac         1.00000000        0.00000000        0.33333300  Ti
       atom_frac         0.16666700        0.16666700        0.50000000  Ti
       atom_frac         0.10185300        0.10185600        0.33333300  O
       atom_frac         0.23148100        0.23147800        0.33333300  O
       atom_frac         0.06481500        0.26852100        0.50000000  O
       atom_frac         0.26851800        0.06481200        0.50000000  O
       atom_frac         1.00000000        0.00000000        0.66666700  Ti
       atom_frac         0.16666700        0.16666700        0.83333300  Ti
       atom_frac         0.10185300        0.10185600        0.66666700  O
       atom_frac         0.23148100        0.23147800        0.66666700  O
       atom_frac         0.06481500        0.26852100        0.83333300  O
       atom_frac         0.26851800        0.06481200        0.83333300  O
       atom_frac         1.00000000        0.33333300        0.00000000  Ti
       atom_frac         0.16666700        0.50000000        0.16666700  Ti
       atom_frac         0.10185300        0.43518900        0.00000000  O
       atom_frac         0.23148100        0.56481100        0.00000000  O
       atom_frac         0.06481500        0.60185400        0.16666700  O
       atom_frac         0.26851800        0.39814600        0.16666700  O
       atom_frac         1.00000000        0.33333300        0.33333300  Ti
       atom_frac         0.16666700        0.50000000        0.50000000  Ti
       atom_frac         0.10185300        0.43518900        0.33333300  O
       atom_frac         0.23148100        0.56481100        0.33333300  O
       atom_frac         0.06481500        0.60185400        0.50000000  O
       atom_frac         0.26851800        0.39814600        0.50000000  O
       atom_frac         1.00000000        0.33333300        0.66666700  Ti
       atom_frac         0.16666700        0.50000000        0.83333300  Ti
       atom_frac         0.10185300        0.43518900        0.66666700  O
       atom_frac         0.23148100        0.56481100        0.66666700  O
       atom_frac         0.06481500        0.60185400        0.83333300  O
       atom_frac         0.26851800        0.39814600        0.83333300  O
       atom_frac         1.00000000        0.66666700        0.00000000  Ti
       atom_frac         0.16666700        0.83333300        0.16666700  Ti
       atom_frac         0.10185300        0.76852200        0.00000000  O
       atom_frac         0.23148100        0.89814400        0.00000000  O
       atom_frac         0.06481500        0.93518800        0.16666700  O
       atom_frac         0.26851800        0.73147900        0.16666700  O
       atom_frac         1.00000000        0.66666700        0.33333300  Ti
       atom_frac         0.16666700        0.83333300        0.50000000  Ti
       atom_frac         0.10185300        0.76852200        0.33333300  O
       atom_frac         0.23148100        0.89814400        0.33333300  O
       atom_frac         0.06481500        0.93518800        0.50000000  O
       atom_frac         0.26851800        0.73147900        0.50000000  O
       atom_frac         1.00000000        0.66666700        0.66666700  Ti
       atom_frac         0.16666700        0.83333300        0.83333300  Ti
       atom_frac         0.10185300        0.76852200        0.66666700  O
       atom_frac         0.23148100        0.89814400        0.66666700  O
       atom_frac         0.06481500        0.93518800        0.83333300  O
       atom_frac         0.26851800        0.73147900        0.83333300  O
       atom_frac         0.33333300        0.00000000        0.00000000  Ti
       atom_frac         0.50000000        0.16666700        0.16666700  Ti
       atom_frac         0.43518600        0.10185600        0.00000000  O
       atom_frac         0.56481400        0.23147800        0.00000000  O
       atom_frac         0.39814900        0.26852100        0.16666700  O
       atom_frac         0.60185100        0.06481200        0.16666700  O
       atom_frac         0.33333300        0.00000000        0.33333300  Ti
       atom_frac         0.50000000        0.16666700        0.50000000  Ti
       atom_frac         0.43518600        0.10185600        0.33333300  O
       atom_frac         0.56481400        0.23147800        0.33333300  O
       atom_frac         0.39814900        0.26852100        0.50000000  O
       atom_frac         0.60185100        0.06481200        0.50000000  O
       atom_frac         0.33333300        0.00000000        0.66666700  Ti
       atom_frac         0.50000000        0.16666700        0.83333300  Ti
       atom_frac         0.43518600        0.10185600        0.66666700  O
       atom_frac         0.56481400        0.23147800        0.66666700  O
       atom_frac         0.39814900        0.26852100        0.83333300  O
       atom_frac         0.60185100        0.06481200        0.83333300  O
       atom_frac         0.33333300        0.33333300        0.00000000  Ti
       atom_frac         0.50000000        0.50000000        0.16666700  Ti
       atom_frac         0.43518600        0.43518900        0.00000000  O
       atom_frac         0.56481400        0.56481100        0.00000000  O
       atom_frac         0.39814900        0.60185400        0.16666700  O
       atom_frac         0.60185100        0.39814600        0.16666700  O
       atom_frac         0.33333300        0.33333300        0.33333300  Ti
       atom_frac         0.50000000        0.50000000        0.50000000  Ti
       atom_frac         0.43518600        0.43518900        0.33333300  O
       atom_frac         0.56481400        0.56481100        0.33333300  O
       atom_frac         0.39814900        0.60185400        0.50000000  O
       atom_frac         0.60185100        0.39814600        0.50000000  O
       atom_frac         0.33333300        0.33333300        0.66666700  Ti
       atom_frac         0.50000000        0.50000000        0.83333300  Ti
       atom_frac         0.43518600        0.43518900        0.66666700  O
       atom_frac         0.56481400        0.56481100        0.66666700  O
       atom_frac         0.39814900        0.60185400        0.83333300  O
       atom_frac         0.60185100        0.39814600        0.83333300  O
       atom_frac         0.33333300        0.66666700        0.00000000  Ti
       atom_frac         0.50000000        0.83333300        0.16666700  Ti
       atom_frac         0.43518600        0.76852200        0.00000000  O
       atom_frac         0.56481400        0.89814400        0.00000000  O
       atom_frac         0.39814900        0.93518800        0.16666700  O
       atom_frac         0.60185100        0.73147900        0.16666700  O
       atom_frac         0.33333300        0.66666700        0.33333300  Ti
       atom_frac         0.50000000        0.83333300        0.50000000  Ti
       atom_frac         0.43518600        0.76852200        0.33333300  O
       atom_frac         0.56481400        0.89814400        0.33333300  O
       atom_frac         0.39814900        0.93518800        0.50000000  O
       atom_frac         0.60185100        0.73147900        0.50000000  O
       atom_frac         0.33333300        0.66666700        0.66666700  Ti
       atom_frac         0.50000000        0.83333300        0.83333300  Ti
       atom_frac         0.43518600        0.76852200        0.66666700  O
       atom_frac         0.56481400        0.89814400        0.66666700  O
       atom_frac         0.39814900        0.93518800        0.83333300  O
       atom_frac         0.60185100        0.73147900        0.83333300  O
       atom_frac         0.66666700        0.00000000        0.00000000  Ti
       atom_frac         0.83333300        0.16666700        0.16666700  Ti
       atom_frac         0.76851900        0.10185600        0.00000000  O
       atom_frac         0.89814700        0.23147800        0.00000000  O
       atom_frac         0.73148200        0.26852100        0.16666700  O
       atom_frac         0.93518500        0.06481200        0.16666700  O
       atom_frac         0.66666700        0.00000000        0.33333300  Ti
       atom_frac         0.83333300        0.16666700        0.50000000  Ti
       atom_frac         0.76851900        0.10185600        0.33333300  O
       atom_frac         0.89814700        0.23147800        0.33333300  O
       atom_frac         0.73148200        0.26852100        0.50000000  O
       atom_frac         0.93518500        0.06481200        0.50000000  O
       atom_frac         0.66666700        0.00000000        0.66666700  Ti
       atom_frac         0.83333300        0.16666700        0.83333300  Ti
       atom_frac         0.76851900        0.10185600        0.66666700  O
       atom_frac         0.89814700        0.23147800        0.66666700  O
       atom_frac         0.73148200        0.26852100        0.83333300  O
       atom_frac         0.93518500        0.06481200        0.83333300  O
       atom_frac         0.66666700        0.33333300        0.00000000  Ti
       atom_frac         0.83333300        0.50000000        0.16666700  Ti
       atom_frac         0.76851900        0.43518900        0.00000000  O
       atom_frac         0.89814700        0.56481100        0.00000000  O
       atom_frac         0.73148200        0.60185400        0.16666700  O
       atom_frac         0.93518500        0.39814600        0.16666700  O
       atom_frac         0.66666700        0.33333300        0.33333300  Ti
       atom_frac         0.83333300        0.50000000        0.50000000  Ti
       atom_frac         0.76851900        0.43518900        0.33333300  O
       atom_frac         0.89814700        0.56481100        0.33333300  O
       atom_frac         0.73148200        0.60185400        0.50000000  O
       atom_frac         0.93518500        0.39814600        0.50000000  O
       atom_frac         0.66666700        0.33333300        0.66666700  Ti
       atom_frac         0.83333300        0.50000000        0.83333300  Ti
       atom_frac         0.76851900        0.43518900        0.66666700  O
       atom_frac         0.89814700        0.56481100        0.66666700  O
       atom_frac         0.73148200        0.60185400        0.83333300  O
       atom_frac         0.93518500        0.39814600        0.83333300  O
       atom_frac         0.66666700        0.66666700        0.00000000  Ti
       atom_frac         0.83333300        0.83333300        0.16666700  Ti
       atom_frac         0.76851900        0.76852200        0.00000000  O
       atom_frac         0.89814700        0.89814400        0.00000000  O
       atom_frac         0.73148200        0.93518800        0.16666700  O
       atom_frac         0.93518500        0.73147900        0.16666700  O
       atom_frac         0.66666700        0.66666700        0.33333300  Ti
       atom_frac         0.83333300        0.83333300        0.50000000  Ti
       atom_frac         0.76851900        0.76852200        0.33333300  O
       atom_frac         0.89814700        0.89814400        0.33333300  O
       atom_frac         0.73148200        0.93518800        0.50000000  O
       atom_frac         0.93518500        0.73147900        0.50000000  O
       atom_frac         0.66666700        0.66666700        0.66666700  Ti
       atom_frac         0.83333300        0.83333300        0.83333300  Ti
       atom_frac         0.76851900        0.76852200        0.66666700  O
       atom_frac         0.89814700        0.89814400        0.66666700  O
       atom_frac         0.73148200        0.93518800        0.83333300  O
       atom_frac         0.93518500        0.73147900        0.83333300  O

  Slab Identifier: This seems to be a bulk system.
 
  Finished reading input file 'geometry.in'.
 

 
  Consistency checks for stacksize environment parameter are next.
 
  | Maximum stacksize for task 0: unlimited
  | Maximum stacksize for task 1: unlimited
  | Maximum stacksize for task 2: unlimited
  | Maximum stacksize for task 3: unlimited
  | Maximum stacksize for task 4: unlimited
  | Maximum stacksize for task 5: unlimited
  | Maximum stacksize for task 6: unlimited
  | Maximum stacksize for task 7: unlimited
  | Maximum stacksize for task 8: unlimited
  | Maximum stacksize for task 9: unlimited
  | Maximum stacksize for task 10: unlimited
  | Maximum stacksize for task 11: unlimited
  | Maximum stacksize for task 12: unlimited
  | Maximum stacksize for task 13: unlimited
  | Maximum stacksize for task 14: unlimited
  | Maximum stacksize for task 15: unlimited
  | Maximum stacksize for task 16: unlimited
  | Maximum stacksize for task 17: unlimited
  | Maximum stacksize for task 18: unlimited
  | Maximum stacksize for task 19: unlimited
  | Maximum stacksize for task 20: unlimited
  | Maximum stacksize for task 21: unlimited
  | Maximum stacksize for task 22: unlimited
  | Maximum stacksize for task 23: unlimited
  | Maximum stacksize for task 24: unlimited
  | Maximum stacksize for task 25: unlimited
  | Maximum stacksize for task 26: unlimited
  | Maximum stacksize for task 27: unlimited
  | Maximum stacksize for task 28: unlimited
  | Maximum stacksize for task 29: unlimited
  | Maximum stacksize for task 30: unlimited
  | Maximum stacksize for task 31: unlimited
  | Current stacksize for task 0: unlimited
  | Current stacksize for task 1: unlimited
  | Current stacksize for task 2: unlimited
  | Current stacksize for task 3: unlimited
  | Current stacksize for task 4: unlimited
  | Current stacksize for task 5: unlimited
  | Current stacksize for task 6: unlimited
  | Current stacksize for task 7: unlimited
  | Current stacksize for task 8: unlimited
  | Current stacksize for task 9: unlimited
  | Current stacksize for task 10: unlimited
  | Current stacksize for task 11: unlimited
  | Current stacksize for task 12: unlimited
  | Current stacksize for task 13: unlimited
  | Current stacksize for task 14: unlimited
  | Current stacksize for task 15: unlimited
  | Current stacksize for task 16: unlimited
  | Current stacksize for task 17: unlimited
  | Current stacksize for task 18: unlimited
  | Current stacksize for task 19: unlimited
  | Current stacksize for task 20: unlimited
  | Current stacksize for task 21: unlimited
  | Current stacksize for task 22: unlimited
  | Current stacksize for task 23: unlimited
  | Current stacksize for task 24: unlimited
  | Current stacksize for task 25: unlimited
  | Current stacksize for task 26: unlimited
  | Current stacksize for task 27: unlimited
  | Current stacksize for task 28: unlimited
  | Current stacksize for task 29: unlimited
  | Current stacksize for task 30: unlimited
  | Current stacksize for task 31: unlimited
 
  Consistency checks for the contents of control.in are next.
 
  MPI_IN_PLACE appears to work with this MPI implementation.
  | Keeping use_mpi_in_place .true. (see manual).
  Target number of points in a grid batch is not set. Defaulting to  100
  Method for grid partitioning is not set. Defaulting to parallel hash+maxmin partitioning.
  Batch size limit is not set. Defaulting to    200
  By default, will store active basis functions for each batch.
  If in need of memory, prune_basis_once .false. can be used to disable this option.
  communication_type for Hartree potential was not specified.
  Defaulting to calc_hartree .
  Defaulting to Pulay charge density mixer.
  Pulay mixer: Number of relevant iterations not set.
  Defaulting to    8 iterations.
  Pulay mixer: Number of initial linear mixing iterations not set.
  Defaulting to    0 iterations.
  Work space size for distributed Hartree potential not set.
  Defaulting to   0.200000E+03 MB.
  Mixing parameter for charge density mixing has not been set.
  Using default: charge_mix_param =     0.0500.
  The mixing parameter will be adjusted in iteration number     2 of each s.c.f. cycle (i.e., each geometry step).
  Algorithm-dependent basis array size parameters:
  | n_max_pulay                         :        8
  Maximum number of self-consistency iterations not provided.
  Presetting  1000 iterations.
  Presetting      1001 iterations before the initial mixing cycle
  is restarted anyway using the sc_init_iter criterion / keyword.
  Presetting a factor      1.000 between actual scf density residual
  and density convergence criterion sc_accuracy_rho below which sc_init_iter
  takes no effect.
 * No s.c.f. convergence criteria (sc_accuracy_*) were provided in control.in.
 * The run will proceed with a reasonable default guess, but please check whether.
 * the s.c.f. cycles seem to take too much or too little time.
  Calculation of forces was not defined in control.in. No forces will be calculated.
  Geometry relaxation not requested: no relaxation will be performed.
 * Notice: The s.c.f. convergence criterion sc_accuracy_rho was not provided.
 * We used to stop in this case, and ask the user to provide reasonable
 * scf convergence criteria. However, this led some users to employ criteria
 * that led to extremely long run times, e.g., for simple relaxation.
 * We now preset a default value for sc_accuracy_rho if it is not set.
 * You may still wish to check if this setting is too tight or too loose for your needs.
 * Based on n_atoms and forces and force-correction status, FHI-aims chose sc_accuracy_rho =  0.415692E-04 .
  No accuracy limit for integral partition fn. given. Defaulting to  0.1000E-14.
  No threshold value for u(r) in integrations given. Defaulting to  0.1000E-05.
  No occupation type (smearing scheme) given. Defaulting to Gaussian broadening, width =  0.1000E-01 eV.
  The width will be adjusted in iteration number     2 of each s.c.f. cycle (i.e., each geometry step).
  No accuracy for occupation numbers given. Defaulting to  0.1000E-12.
  No threshold value for occupation numbers given. Defaulting to  0.0000E+00.
  No accuracy for fermi level given. Defaulting to  0.1000E-19.
  Maximum # of iterations to find E_F not set. Defaulting to  200.
  Will not use alltoall communication since running on < 1024 CPUs.
  Threshold for basis singularities not set.
  Default threshold for basis singularities:  0.1000E-04
  partition_type (choice of integration weights) for integrals was not specified.
  | Using a version of the partition function of Stratmann and coworkers ('stratmann_sparse').
  | At each grid point, the set of atoms used to build the partition table is smoothly restricted to
  | only those atoms whose free-atom density would be non-zero at that grid point.
  Partitioning for Hartree potential was not defined. Using partition_type for integrals.
  | Adjusted default value of keyword multip_moments_threshold to:       0.10000000E-11
  | This value may affect high angular momentum components of the Hartree potential in periodic systems.
  No q(lm)/r^(l+1) cutoff set for long-range Hartree potential.
  | Using default value of  0.100000E-09 .
  | Verify using the multipole_threshold keyword.
  Defaulting to new monopole extrapolation.
  Density update method: automatic selection selected.
  Using density matrix based charge density update.
  Using density matrix based charge density update.
  Using packed matrix style: index .
  Defaulting to use time-reversal symmetry for k-point grid.
  Charge integration errors on the 3D integration grid will be compensated
  by explicit normalization and distribution of residual charges.
  Use the "compensate_multipole_errors" flag to change this behaviour.
  Set 'collect_eigenvectors' to be '.true.' for all serial calculations. This is mandatory.
  Set 'collect_eigenvectors' to be '.true.' for KS_method lapack_fast and serial.
  Found potential conflicts with setting 'use_local_index' for this calculation. Will not set it.
 
  Consistency checks for the contents of geometry.in are next.
 

  Range separation radius for Ewald summation (hartree_convergence_parameter):      3.05697892 bohr.
  Number of empty states per atom not set in control.in - providing a guess from actual geometry.
  | Total number of empty states used during s.c.f. cycle:      621
  If you use a very high smearing, use empty_states (per atom!) in control.in to increase this value.

  Structure-dependent array size parameters: 
  | Maximum number of distinct radial functions  :       39
  | Maximum number of basis functions            :     3242
  | Number of Kohn-Sham states (occupied + empty):     1647
------------------------------------------------------------
  After read_input_data [GB]:    977.29

  Performing system and environment tests:
  *** Environment variable OMP_NUM_THREADS is not set
  *** For performance reasons you might want to set it to 1
  | Checking for ScaLAPACK...
  | Testing pdtran()...
  | All pdtran() tests passed.
  After prepare_system [GB]:    977.15

------------------------------------------------------------
          Preparing all fixed parts of the calculation.
------------------------------------------------------------
  Determining machine precision:
    2.225073858507201E-308
  Setting up grids for atomic and cluster calculations.

  Creating wave function, potential, and density for free atoms.
  Runtime choices for atomic solver:
  | atomic solver xc        : PBE
  | compute density gradient: 1
  | compute kinetic density : F

  Species: Ti

  List of occupied orbitals and eigenvalues:
    n    l              occ      energy [Ha]    energy [eV]
    1    0           2.0000      -179.959082     -4896.9358
    2    0           2.0000       -19.727662      -536.8170
    3    0           2.0000        -2.283029       -62.1244
    4    0           2.0000        -0.148384        -4.0377
    2    1           6.0000       -16.317278      -444.0157
    3    1           6.0000        -1.409348       -38.3503
    3    2           2.0000        -0.139340        -3.7916


  Species: O

  List of occupied orbitals and eigenvalues:
    n    l              occ      energy [Ha]    energy [eV]
    1    0           2.0000       -18.926989      -515.0296
    2    0           2.0000        -0.880247       -23.9527
    2    1           4.0000        -0.331514        -9.0210


  Species: O1

  List of occupied orbitals and eigenvalues:
    n    l              occ      energy [Ha]    energy [eV]
    1    0           2.0000       -18.927378      -515.0401
    2    0           2.0000        -0.880539       -23.9607
    2    1           4.0000        -0.331811        -9.0290


  Adding cutoff potential to free-atom effective potential.
  Creating fixed part of basis set: Ionic, confined, hydrogenic.
 
  Ti                   ion:

  List of free ionic orbitals and eigenvalues:
    n    l      energy [Ha]    energy [eV]
    1    0      -180.819616     -4920.3521
    2    0       -20.608761      -560.7929
    3    0        -3.115729       -84.7833
    4    0        -0.697188       -18.9715
    2    1       -17.196209      -467.9327
    3    1        -2.231296       -60.7167
    3    2        -0.911363       -24.7995


  List of ionic basis orbitals and eigenvalues:
    n    l      energy [Ha]    energy [eV]    outer radius [A]
    4    1        -0.517739       -14.0884       4.592117
    4    0        -0.696824       -18.9615       4.536321

 
  Ti                   hydrogenic:
 
  List of hydrogenic basis orbitals: 
    n    l      effective z      eigenvalue [eV]  inner max. [A]     outer max. [A]     outer radius [A]   
    4    3         8.000000       -54.4222           1.059019           1.059019           4.267343
    3    2         2.700000       -10.7798           1.726925           1.726925           4.592117
 
 
  O                    hydrogenic:
 
  List of hydrogenic basis orbitals: 
    n    l      effective z      eigenvalue [eV]  inner max. [A]     outer max. [A]     outer radius [A]   
    2    1         1.800000       -10.9749           1.164242           1.164242           4.578029
    3    2         7.600000       -87.3180           0.624125           0.624125           3.251020
    3    0         6.400000       -61.9207           0.061167           1.081902           4.001998
 
 
  O1                   ion:

  List of free ionic orbitals and eigenvalues:
    n    l      energy [Ha]    energy [eV]
    1    0       -20.485570      -557.4407
    2    0        -2.134830       -58.0917
    2    1        -1.577627       -42.9294


  List of ionic basis orbitals and eigenvalues:
    n    l      energy [Ha]    energy [eV]    outer radius [A]
    2    1        -1.577621       -42.9293       3.541477

 
  O1                   hydrogenic:
 
  List of hydrogenic basis orbitals: 
    n    l      effective z      eigenvalue [eV]  inner max. [A]     outer max. [A]     outer radius [A]   
    2    1         1.800000       -11.0118           1.178562           1.178562           5.432602
    3    2         7.600000       -87.3182           0.624125           0.624125           3.541477
    3    0         6.400000       -61.9209           0.061167           1.081902           4.306578
    4    3        11.600000      -114.4238           0.731631           0.731631           3.585037
    3    1         6.200000       -58.1113           0.255680           1.030270           4.306578
    3    2         5.600000       -47.4081           0.847233           0.847233           4.413171
    5    4        17.600000      -168.5799           0.749740           0.749740           3.372465
    1    0         0.750000        -7.6499           0.705284           0.705284           5.366593
    4    3        10.800000       -99.1854           0.787313           0.787313           3.764702
    4    2         4.700000       -18.6841           0.758962           2.365807           5.499423
    2    0         6.800000      -157.2818           0.059689           0.406863           2.739620
    1    0        12.000000     -1959.2197           0.043971           0.043971           0.816724
    1    0        10.000000     -1360.5692           0.052821           0.052821           0.981101
    1    0         6.000000      -489.8049           0.088266           0.088266           1.561224
    2    0        10.000000      -340.1423           0.040365           0.278524           2.093567
    2    1         8.000000      -217.6911           0.265231           0.265231           2.365807
    2    1         6.000000      -122.4512           0.351348           0.351348           2.841960
    3    2         8.000000       -96.7515           0.594340           0.594340           3.455938
 
  Creating atomic-like basis functions for current effective potential.

  Species Ti                  :

  List of atomic basis orbitals and eigenvalues:
    n    l      energy [Ha]    energy [eV]    outer radius [A]
    1    0      -179.959082     -4896.9358       0.490254
    2    0       -19.727662      -536.8170       1.491292
    3    0        -2.283029       -62.1244       4.014314
    4    0        -0.148384        -4.0377       4.592117
    2    1       -16.317278      -444.0157       1.585290
    3    1        -1.409348       -38.3503       4.267343
    3    2        -0.139340        -3.7916       4.536321


  Species O                   :

  List of atomic basis orbitals and eigenvalues:
    n    l      energy [Ha]    energy [eV]    outer radius [A]
    1    0       -18.926989      -515.0296       1.415765
    2    0        -0.880247       -23.9527       4.413171
    2    1        -0.331514        -9.0210       4.522403


  Species O1                  :

  List of atomic basis orbitals and eigenvalues:
    n    l      energy [Ha]    energy [eV]    outer radius [A]
    1    0       -18.927378      -515.0401       1.415765
    2    0        -0.880539       -23.9607       5.048385
    2    1        -0.331811        -9.0290       5.301386

  Assembling full basis from fixed parts.
  | Species Ti :   atomic orbital   1 s accepted.
  | Species Ti :   atomic orbital   2 s accepted.
  | Species Ti :   atomic orbital   3 s accepted.
  | Species Ti :    ionic orbital   4 s accepted.
  | Species Ti :   atomic orbital   4 s accepted.
  | Species Ti :   atomic orbital   2 p accepted.
  | Species Ti :   atomic orbital   3 p accepted.
  | Species Ti :    ionic orbital   4 p accepted.
  | Species Ti :   atomic orbital   3 d accepted.
  | Species Ti :    hydro orbital   3 d accepted.
  | Species Ti :    hydro orbital   4 f accepted.
  | Species O :   atomic orbital   1 s accepted.
  | Species O :    hydro orbital   3 s accepted.
  | Species O :   atomic orbital   2 s accepted.
  | Species O :   atomic orbital   2 p accepted.
  | Species O :    hydro orbital   2 p accepted.
  | Species O :    hydro orbital   3 d accepted.
  | Species O1 :    hydro orbital   1 s accepted.
  | Species O1 :    hydro orbital   1 s accepted.
  | Species O1 :   atomic orbital   1 s accepted.
  | Species O1 :    hydro orbital   1 s accepted.
  | Species O1 :    hydro orbital   2 s accepted.
  | Species O1 :    hydro orbital   2 s accepted.
  | Species O1 :    hydro orbital   3 s accepted.
  | Species O1 :   atomic orbital   2 s accepted.
  | Species O1 :    hydro orbital   1 s accepted.
  | Species O1 :    hydro orbital   2 p accepted.
  | Species O1 :    hydro orbital   2 p accepted.
  | Species O1 :    ionic orbital   2 p accepted.
  | Species O1 :    hydro orbital   3 p accepted.
  | Species O1 :   atomic orbital   2 p accepted.
  | Species O1 :    hydro orbital   2 p accepted.
  | Species O1 :    hydro orbital   3 d accepted.
  | Species O1 :    hydro orbital   3 d accepted.
  | Species O1 :    hydro orbital   3 d accepted.
  | Species O1 :    hydro orbital   4 d accepted.
  | Species O1 :    hydro orbital   4 f accepted.
  | Species O1 :    hydro orbital   4 f accepted.
  | Species O1 :    hydro orbital   5 g accepted.
 
  Basis size parameters after reduction:
  | Total number of radial functions:       39
  | Total number of basis functions :     3242
 
  Per-task memory consumption for arrays in subroutine allocate_ext:
  |          10.450108MB.
  Testing on-site integration grid accuracy.
  |  Species  Function  <phi|h_atom|phi> (log., in eV)  <phi|h_atom|phi> (rad., in eV)
           1        1              -4896.9357674450              -4896.9322838106
           1        2               -536.8170048508               -536.8169722776
           1        3                -62.1243896260                -62.1243889401
           1        4                 -3.2653235630                 -3.2692838824
           1        5                  6.7987747276                  6.5460721871 ***
           1        6               -444.0157161949               -444.0157165643
           1        7                -38.3503235548                -38.3503234985
           1        8                  0.2923930877                  0.2745948114
           1        9                 -3.7933400649                 -3.7959244171
           1       10                  6.3288803616                  6.2510614935 ***
           1       11                 27.8451455747                 27.8452636415
           2       12               -515.0295626295               -515.0294562869
           2       13                 15.1698434419                 15.1699322205
           2       14                -21.6038822678                -21.6039118108
           2       15                 -9.0211123393                 -9.0212703513
           2       16                  8.3047696391                  8.2854840999
           2       17                 45.8428042125                 45.8427461223
           3       18               -272.9322507263               -272.9201921991
           3       19               1665.9089384428               1665.9689460231 ***
           3       20               2095.2037268945               2095.2740317228 ***
           3       21               3047.3679718515               3047.0126722257 ***
           3       22               3234.6000205573               3231.5687072350 ***
           3       23               2428.4660356492               2422.2375592442 ***
           3       24                896.7802862158                893.3913916184 ***
           3       25               3128.2108268826               3108.2674940926 ***
           3       26                 71.8616615187                 71.1575836879 ***
           3       27                 15.4122562036                 15.4122564509
           3       28                101.7989356251                101.7989355629
           3       29                121.1064459338                121.1064460850
           3       30                271.5759585347                271.5759823152
           3       31                159.3966255928                159.3962927971
           3       32                153.6473243407                153.6504704040
           3       33                 50.7421815376                 50.7421815945
           3       34                 88.5010368311                 88.5010331057
           3       35                 82.9872957917                 82.9873669217
           3       36                 36.7418806245                 36.7419113217
           3       37                 85.4133898762                 85.4133899074
           3       38                115.1018427582                115.1018451832
           3       39                142.1023296234                142.1023296272
 * Note: Onsite integrals marked "***" above are less accurate than
 * onsite_accuracy_threshold =    0.03000 eV. Usually, this is harmless.
 * When in doubt, tighten the "radial" and/or "radial_multiplier" flags to check.

  Preparing densities etc. for the partition functions (integrals / Hartree potential).

  Preparations completed.
  max(cpu_time)          :      0.373 s.
  Wall clock time (cpu1) :      0.373 s.
------------------------------------------------------------
  After prepare_scf [GB]:    975.13

  Initializing index lists of integration centers etc. from given atomic structure:
  Mapping all atomic coordinates to central unit cell.

  Initializing the k-points
  Using symmetry for reducing the k-points
  | k-points reduced from:       45 to       23
  | Number of k-points                             :        23
  The eigenvectors in the calculations are COMPLEX.
  | K-points in task   0:         0
  | K-points in task   1:         1
  | K-points in task   2:         1
  | K-points in task   3:         1
  | K-points in task   4:         1
  | K-points in task   5:         1
  | K-points in task   6:         1
  | K-points in task   7:         1
  | K-points in task   8:         1
  | K-points in task   9:         1
  | K-points in task  10:         1
  | K-points in task  11:         1
  | K-points in task  12:         1
  | K-points in task  13:         1
  | K-points in task  14:         1
  | K-points in task  15:         1
  | K-points in task  16:         1
  | K-points in task  17:         1
  | K-points in task  18:         1
  | K-points in task  19:         1
  | K-points in task  20:         1
  | K-points in task  21:         1
  | K-points in task  22:         1
  | K-points in task  23:         1
  | K-points in task  24:         0
  | K-points in task  25:         0
  | K-points in task  26:         0
  | K-points in task  27:         0
  | K-points in task  28:         0
  | K-points in task  29:         0
  | K-points in task  30:         0
  | K-points in task  31:         0
  | Number of basis functions in the Hamiltonian integrals :     14827
  | Number of basis functions in a single unit cell        :      3242
[...]
   1493       0.00000           0.351125            9.55460
   1494       0.00000           0.351337            9.56038
   1495       0.00000           0.351420            9.56263
   1496       0.00000           0.351436            9.56307
   1497       0.00000           0.351498            9.56475
   1498       0.00000           0.353674            9.62395
   1499       0.00000           0.354070            9.63473
   1500       0.00000           0.354253            9.63972
   1501       0.00000           0.354388            9.64338
   1502       0.00000           0.354698            9.65181
   1503       0.00000           0.354731            9.65273
   1504       0.00000           0.354797            9.65452
   1505       0.00000           0.354960            9.65895
   1506       0.00000           0.360193            9.80135
   1507       0.00000           0.361205            9.82888
   1508       0.00000           0.365725            9.95189
   1509       0.00000           0.366259            9.96642
   1510       0.00000           0.366475            9.97230
   1511       0.00000           0.366535            9.97392
   1512       0.00000           0.366764            9.98015
   1513       0.00000           0.366896            9.98375
   1514       0.00000           0.367359            9.99636
   1515       0.00000           0.367413            9.99781
   1516       0.00000           0.367649           10.00424
   1517       0.00000           0.367705           10.00576
   1518       0.00000           0.367951           10.01246
   1519       0.00000           0.368017           10.01426
   1520       0.00000           0.370846           10.09123
   1521       0.00000           0.370997           10.09533
   1522       0.00000           0.376666           10.24961
   1523       0.00000           0.376779           10.25268
   1524       0.00000           0.377210           10.26439
   1525       0.00000           0.377361           10.26853
   1526       0.00000           0.380961           10.36647
   1527       0.00000           0.381836           10.39029
   1528       0.00000           0.383047           10.42324
   1529       0.00000           0.383154           10.42614
   1530       0.00000           0.384017           10.44964
   1531       0.00000           0.384378           10.45945
   1532       0.00000           0.384386           10.45966
   1533       0.00000           0.384641           10.46661
   1534       0.00000           0.385547           10.49126
   1535       0.00000           0.385607           10.49290
   1536       0.00000           0.385651           10.49410
   1537       0.00000           0.385711           10.49573
   1538       0.00000           0.390975           10.63896
   1539       0.00000           0.391391           10.65029
   1540       0.00000           0.391663           10.65770
   1541       0.00000           0.392256           10.67384
   1542       0.00000           0.392336           10.67600
   1543       0.00000           0.392810           10.68889
   1544       0.00000           0.393004           10.69419
   1545       0.00000           0.393026           10.69477
   1546       0.00000           0.396844           10.79867
   1547       0.00000           0.396980           10.80239
   1548       0.00000           0.416919           11.34496
   1549       0.00000           0.417688           11.36587
   1550       0.00000           0.418296           11.38241
   1551       0.00000           0.418476           11.38730
   1552       0.00000           0.419572           11.41715
   1553       0.00000           0.419876           11.42542
   1554       0.00000           0.419953           11.42751
   1555       0.00000           0.420268           11.43607
   1556       0.00000           0.429185           11.67873
   1557       0.00000           0.429826           11.69615
   1558       0.00000           0.430326           11.70976
   1559       0.00000           0.430327           11.70981
   1560       0.00000           0.430614           11.71760
   1561       0.00000           0.431014           11.72848
   1562       0.00000           0.431043           11.72927
   1563       0.00000           0.431096           11.73072
   1564       0.00000           0.441580           12.01602
   1565       0.00000           0.443413           12.06588
   1566       0.00000           0.443566           12.07003
   1567       0.00000           0.445078           12.11118
   1568       0.00000           0.445094           12.11163
   1569       0.00000           0.445528           12.12344
   1570       0.00000           0.445752           12.12953
   1571       0.00000           0.445830           12.13165
   1572       0.00000           0.446022           12.13687
   1573       0.00000           0.446031           12.13713
   1574       0.00000           0.446307           12.14464
   1575       0.00000           0.446335           12.14538
   1576       0.00000           0.446400           12.14715
   1577       0.00000           0.446503           12.14995
   1578       0.00000           0.446553           12.15132
   1579       0.00000           0.446669           12.15450
   1580       0.00000           0.469713           12.78154
   1581       0.00000           0.474105           12.90104
   1582       0.00000           0.474828           12.92071
   1583       0.00000           0.475053           12.92686
   1584       0.00000           0.475297           12.93350
   1585       0.00000           0.490398           13.34441
   1586       0.00000           0.491055           13.36230
   1587       0.00000           0.492934           13.41343
   1588       0.00000           0.493111           13.41824
   1589       0.00000           0.493328           13.42414
   1590       0.00000           0.493567           13.43064
   1591       0.00000           0.493641           13.43265
   1592       0.00000           0.493646           13.43280
   1593       0.00000           0.506720           13.78855
   1594       0.00000           0.507297           13.80425
   1595       0.00000           0.507478           13.80918
   1596       0.00000           0.507498           13.80972
   1597       0.00000           0.522107           14.20725
   1598       0.00000           0.522852           14.22753
   1599       0.00000           0.523242           14.23815
   1600       0.00000           0.523870           14.25524
   1601       0.00000           0.524054           14.26022
   1602       0.00000           0.524162           14.26318
   1603       0.00000           0.524238           14.26525
   1604       0.00000           0.524335           14.26789
   1605       0.00000           0.524337           14.26794
   1606       0.00000           0.524377           14.26903
   1607       0.00000           0.524911           14.28355
   1608       0.00000           0.525452           14.29828
   1609       0.00000           0.527695           14.35931
   1610       0.00000           0.528172           14.37229
   1611       0.00000           0.528324           14.37644
   1612       0.00000           0.528781           14.38887
   1613       0.00000           0.530744           14.44228
   1614       0.00000           0.535569           14.57358
   1615       0.00000           0.538282           14.64741
   1616       0.00000           0.538573           14.65531
   1617       0.00000           0.539494           14.68037
   1618       0.00000           0.539921           14.69200
   1619       0.00000           0.540077           14.69624
   1620       0.00000           0.540576           14.70982
   1621       0.00000           0.545758           14.85084
   1622       0.00000           0.545956           14.85621
   1623       0.00000           0.547316           14.89322
   1624       0.00000           0.547769           14.90556
   1625       0.00000           0.548775           14.93292
   1626       0.00000           0.549260           14.94614
   1627       0.00000           0.549473           14.95193
   1628       0.00000           0.549652           14.95678
   1629       0.00000           0.561412           15.27680
   1630       0.00000           0.562560           15.30803
   1631       0.00000           0.563129           15.32351
   1632       0.00000           0.563187           15.32510
   1633       0.00000           0.570402           15.52144
   1634       0.00000           0.578248           15.73493
   1635       0.00000           0.581553           15.82486
   1636       0.00000           0.581789           15.83128
   1637       0.00000           0.582061           15.83869
   1638       0.00000           0.583240           15.87077
   1639       0.00000           0.584476           15.90441
   1640       0.00000           0.586198           15.95125
   1641       0.00000           0.601520           16.36818
   1642       0.00000           0.602986           16.40809
   1643       0.00000           0.604724           16.45539
   1644       0.00000           0.608653           16.56230
   1645       0.00000           0.629867           17.13956
   1646       0.00000           0.634711           17.27135
   1647       0.00000           0.638472           17.37372

  What follows are estimated values for band gap, HOMO, LUMO, etc.
  | They are estimated on a discrete k-point grid and not necessarily exact.
  | For converged numbers, create a DOS and/or band structure plot on a denser k-grid.

  Highest occupied state (VBM) at     -8.70259887 eV (relative to internal zero)
  | Occupation number:      1.99999997
  | K-point:       1 at    0.000000    0.000000    0.000000 (in units of recip. lattice)

  Lowest unoccupied state (CBM) at    -6.93539497 eV (relative to internal zero)
  | Occupation number:      0.00000000
  | K-point:       1 at    0.000000    0.000000    0.000000 (in units of recip. lattice)

  ESTIMATED overall HOMO-LUMO gap:      1.76720389 eV between HOMO at k-point 1 and LUMO at k-point 1
  | This appears to be a direct band gap.
  The gap value is above 0.2 eV. Unless you are using a very sparse k-point grid,
  this system is most likely an insulator or a semiconductor.

  Total energy components:
  | Sum of eigenvalues            :      -32116.06148952 Ha     -873922.49781707 eV
  | XC energy correction          :       -3202.72197640 Ha      -87150.49914655 eV
  | XC potential correction       :        4140.97247316 Ha      112681.59417097 eV
  | Free-atom electrostatic energy:      -23089.92236279 Ha     -628308.75548908 eV
  | Hartree energy correction     :          25.48767608 Ha         693.55495375 eV
  | Entropy correction            :          -0.00000000 Ha          -0.00000000 eV
  | ---------------------------
  | Total energy                  :      -54242.24567949 Ha    -1476006.60332797 eV
  | Total energy, T -> 0          :      -54242.24567949 Ha    -1476006.60332797 eV  <-- do not rely on this value for anything but (periodic) metals
  | Electronic free energy        :      -54242.24567949 Ha    -1476006.60332797 eV

  Derived energy quantities:
  | Kinetic energy                :       54880.92068482 Ha     1493385.83446855 eV
  | Electrostatic energy          :     -105920.44438790 Ha    -2882241.93864997 eV
  | Energy correction for multipole
  | error in Hartree potential    :           0.54787270 Ha          14.90837471 eV
  | Sum of eigenvalues per atom                           :       -5394.58331986 eV
  | Total energy (T->0) per atom                          :       -9111.15187239 eV  <-- do not rely on this value for anything but (periodic) metals
  | Electronic free energy per atom                       :       -9111.15187239 eV
  End evaluation of scaled ZORA corrections.
  | Time for scaled ZORA corrections            :      249.456 s         249.466 s
------------------------------------------------------------

  Energy and forces in a compact form:
  | Total energy uncorrected      :         -0.147600660332797E+07 eV
  | Total energy corrected        :         -0.147600660332797E+07 eV  <-- do not rely on this value for anything but (periodic) metals
  | Electronic free energy        :         -0.147600660332797E+07 eV

  ------------------------------------ 
  Start decomposition of the XC Energy 
  ------------------------------------ 
  X and C from original XC functional choice 
  Hartree-Fock Energy :          0.000000000 Ha              0.000000000 eV
  X Energy            :      -3121.444532890 Ha         -84938.827379899 eV
  C Energy            :        -81.277443514 Ha          -2211.671766647 eV
  XC Energy w/o HF    :      -3202.721976405 Ha         -87150.499146546 eV
  Total XC Energy     :      -3202.721976405 Ha         -87150.499146546 eV
  ------------------------------------ 
  LDA X and C from self-consistent density 
  X Energy LDA        :      -2897.688751201 Ha         -78850.122770267 eV
  C Energy LDA        :       -158.517068715 Ha          -4313.468906617 eV
  ------------------------------------ 
  End decomposition of the XC Energy 
  ------------------------------------ 

------------------------------------------------------------

------------------------------------------------------------------------------
  Final output of selected total energy values:

  The following output summarizes some interesting total energy values
  at the end of a run (AFTER all relaxation, molecular dynamics, etc.).

  | Total energy of the DFT / Hartree-Fock s.c.f. calculation      :       -1476006.603327970 eV
  | Final zero-broadening corrected energy (caution - metals only) :       -1476006.603327970 eV
  | For reference only, the value of 1 Hartree used in FHI-aims is :             27.211384500 eV
  | For reference only, the overall average (free atom contribution
  | + realspace contribution) of the electrostatic potential after
  | s.c.f. convergence is                                          :            -17.019487145 eV

  Before relying on these values, please be sure to understand exactly which
  total energy value is referred to by a given number. Different objects may
  all carry the same name 'total energy'. Definitions:

  Total energy of the DFT / Hartree-Fock s.c.f. calculation:
  | Note that this energy does not include ANY quantities calculated after the
  | s.c.f. cycle, in particular not ANY RPA, MP2, etc. many-body perturbation terms.
  | Scalar relativistic effects have been included in the 'scaled ZORA' approximation.

  Final zero-broadening corrected energy:
  | For metallic systems only, a broadening of the occupation numbers at the Fermi
  | level can be extrapolated back to zero broadening by an electron-gas inspired
  | formula. For all systems that are not real metals, this value can be
  | meaningless and should be avoided.

------------------------------------------------------------------------------
  Methods described in the following list of references were used in this FHI-aims run.
  If you publish the results, please make sure to cite these reference if they apply.
  FHI-aims is an academic code, and for our developers (often, Ph.D. students
  and postdocs), scientific credit in the community is essential.
  Thank you for helping us!

  For any use of FHI-aims, please cite:

    Volker Blum, Ralf Gehrke, Felix Hanke, Paula Havu, Ville Havu,
    Xinguo Ren, Karsten Reuter, and Matthias Scheffler
    'Ab initio molecular simulations with numeric atom-centered orbitals'
    Computer Physics Communications 180, 2175-2196 (2009)
    http://doi.org/10.1016/j.cpc.2009.06.022


  The provided symmetry information was generated with SPGlib:

    Atsushi Togo, Yusuke Seto, Dimitar Pashov
    SPGlib 1.7.3 obtained from http://spglib.sourceforge.net
    Licence: New BSD license
    Copyright (C) 2008 Atsushi Togo


  The ELSI infrastructure was used in your run to solve the Kohn-Sham electronic structure.
  Please check out https://wordpress.elsi-interchange.org to learn more.
  If scalability is important for your project, please acknowledge ELSI by citing:

    V. W-z. Yu, F. Corsetti, A. Garcia, W. P. Huhn, M. Jacquelin, W. Jia,
    B. Lange, L. Lin, J. Lu, W. Mi, A. Seifitokaldani, A. Vazquez-Mayagoitia,
    C. Yang, H. Yang, and V. Blum
    'ELSI: A unified software interface for Kohn-Sham electronic structure solvers'
    Computer Physics Communications 222, 267-285 (2018).
    http://doi.org/10.1016/j.cpc.2017.09.007


  For the real-space grid partitioning and parallelization used in this calculation, please cite:

    Ville Havu, Volker Blum, Paula Havu, and Matthias Scheffler,
    'Efficient O(N) integration for all-electron electronic structure calculation'
    'using numerically tabulated basis functions'
    Journal of Computational Physics 228, 8367-8379 (2009).
    http://doi.org/10.1016/j.jcp.2009.08.008

  Of course, there are many other important community references, e.g., those cited in the
  above references. Our list is limited to references that describe implementations in the
  FHI-aims code. The reason is purely practical (length of this list) - please credit others as well.

 * A warning was issued further up regarding the CPU load.
   Some CPUs do not participate in the eigenvalue solution.
   In corner cases, this may be the correct behavior. Otherwise,
   consider using a scalapack/elpa version of the code for a parallel treatment.

------------------------------------------------------------
          Leaving FHI-aims.
          Date     :  20241104, Time     :  132938.014

          Computational steps:
          | Number of self-consistency cycles          :           16
          | Number of SCF (re)initializations          :            1

          Detailed time accounting                     :  max(cpu_time)    wall_clock(cpu1)
          | Total time                                  :     1616.565 s        1616.616 s
          | Preparation time                            :        0.373 s           0.373 s
          | Boundary condition initalization            :        0.184 s           0.183 s
          | Grid partitioning                           :        1.156 s           1.156 s
          | Preloading free-atom quantities on grid     :        4.391 s           4.391 s
          | Free-atom superposition energy              :        0.590 s           0.590 s
          | Total time for integrations                 :      204.892 s         204.897 s
          | Total time for solution of K.-S. equations  :      932.426 s         932.478 s
          | Total time for density update               :      198.369 s         198.378 s
          | Total time for mixing                       :        0.208 s           0.208 s
          | Total time for Hartree multipole update     :        0.283 s           0.286 s
          | Total time for Hartree multipole sum        :       23.894 s          23.893 s
          | Total time for total energy evaluation      :        0.032 s           0.039 s
          | Total time for scaled ZORA corrections      :      249.456 s         249.466 s

          Partial memory accounting:
          | Residual value for overall tracked memory usage across tasks:     0.000000 MB (should be 0.000000 MB)
          | Peak values for overall tracked memory usage:
          |   Minimum:      320.068 MB (on task 24 after allocating kdm)
          |   Maximum:      882.787 MB (on task  6 after allocating eval_tmp)
          |   Average:      724.511 MB
          | Largest tracked array allocation:
          |   Minimum:      160.378 MB (kdm_complex on task  0)
          |   Maximum:      160.378 MB (kdm_complex on task  0)
          |   Average:      160.378 MB
          Note:  These values currently only include a subset of arrays which are explicitly tracked.
          The "true" memory usage will be greater.

          Have a nice day.
------------------------------------------------------------
