------------------------------------------------------------
          Invoking FHI-aims ...

          When using FHI-aims, please cite the following reference:

            Volker Blum, Ralf Gehrke, Felix Hanke, Paula Havu,
            Ville Havu, Xinguo Ren, Karsten Reuter, and Matthias Scheffler,
            'Ab Initio Molecular Simulations with Numeric Atom-Centered Orbitals',
            Computer Physics Communications 180, 2175-2196 (2009)

          In addition, many other developments in FHI-aims are likely important for
          your particular application. If so, please cite them. A partial list of references
          is written at the end of this file. Thank you for giving credit to the authors
          of these developments.

          For general information about FHI-aims please find us at

            https://fhi-aims.org

          Online tutorials can be found at

            https://fhi-aims-club.gitlab.io/tutorials/tutorials-overview/

          For any questions about FHI-aims, please visit our slack channel at

            https://fhi-aims.slack.com

          and our main development and support site at

            https://aims-git.rz-berlin.mpg.de .

          The latter site, in particular, has a wiki to collect information, as well
          as an issue tracker to log discussions, suggest improvements, and report issues
          or bugs. https://aims-git.rz-berlin.mpg.de is also the main development site
          of the project and all new and updated code versions can be obtained there.
          Please send an email to aims-coordinators@fhi-berlin.mpg.de and we will add
          you to these sites. They are for you and everyone is welcome there.

------------------------------------------------------------



  Date     :  20251013, Time     :  195133.493
  Time zero on CPU 1             :   0.369755000000000E+00  s.
  Internal wall clock time zero  :           529617093.493  s.

  FHI-aims created a unique identifier for this run for later identification
  aims_uuid : 3CB8FFA7-27FF-4393-A40E-02008D42F716

  Build configuration of the current instance of FHI-aims
  -------------------------------------------------------
  FHI-aims version      : 240605
  Commit number         : b001b2e18
  CMake host system     : Linux-6.5.0-41-generic
  CMake version         : 3.22.1
  Fortran compiler      : /opt/intel/oneapi/mpi/2021.12/bin/mpiifort (IntelLLVM) version 2024.1.0
  Fortran compiler flags: -fc=ifx -O3 -ip -fp-model precise
  C compiler            : /opt/intel/oneapi/mpi/2021.12/bin/mpiicc (IntelLLVM) version 2024.1.0
  C compiler flags      : -cc=icx -O3 -ip -fp-model precise -std=gnu99
  C++ compiler          : /opt/intel/oneapi/mpi/2021.12/bin/mpiicpc (IntelLLVM) version 2024.1.0
  C++ compiler flags    : -cxx=icpx -O3 -ip -fp-model precise -std=c++11
  HIP compiler          :
  HIP compiler flags    :
  HIP GPU arch          :
  Using MPI
  Using ScaLAPACK
  Using LibXC
  Using i-PI
  Using RLSY
  Linking against: /opt/intel/oneapi/mkl/2024.1/lib/intel64/libmkl_intel_lp64.so
                   /opt/intel/oneapi/mkl/2024.1/lib/intel64/libmkl_sequential.so
                   /opt/intel/oneapi/mkl/2024.1/lib/intel64/libmkl_core.so
                   /opt/intel/oneapi/mkl/2024.1/lib/intel64/libmkl_blacs_intelmpi_lp64.so
                   /opt/intel/oneapi/mkl/2024.1/lib/intel64/libmkl_scalapack_lp64.so
                   /opt/intel/oneapi/mkl/2024.1/lib/intel64/libmkl_core.so

  Using       32 parallel tasks.
  Task        0 on host RSL-arvutus reporting.
  Task        1 on host RSL-arvutus reporting.
  Task        2 on host RSL-arvutus reporting.
  Task        3 on host RSL-arvutus reporting.
  Task        4 on host RSL-arvutus reporting.
  Task        5 on host RSL-arvutus reporting.
  Task        6 on host RSL-arvutus reporting.
  Task        7 on host RSL-arvutus reporting.
  Task        8 on host RSL-arvutus reporting.
  Task        9 on host RSL-arvutus reporting.
  Task       10 on host RSL-arvutus reporting.
  Task       11 on host RSL-arvutus reporting.
  Task       12 on host RSL-arvutus reporting.
  Task       13 on host RSL-arvutus reporting.
  Task       14 on host RSL-arvutus reporting.
  Task       15 on host RSL-arvutus reporting.
  Task       16 on host RSL-arvutus reporting.
  Task       17 on host RSL-arvutus reporting.
  Task       18 on host RSL-arvutus reporting.
  Task       19 on host RSL-arvutus reporting.
  Task       20 on host RSL-arvutus reporting.
  Task       21 on host RSL-arvutus reporting.
  Task       22 on host RSL-arvutus reporting.
  Task       23 on host RSL-arvutus reporting.
  Task       24 on host RSL-arvutus reporting.
  Task       25 on host RSL-arvutus reporting.
  Task       26 on host RSL-arvutus reporting.
  Task       27 on host RSL-arvutus reporting.
  Task       28 on host RSL-arvutus reporting.
  Task       29 on host RSL-arvutus reporting.
  Task       30 on host RSL-arvutus reporting.
  Task       31 on host RSL-arvutus reporting.

  Memory overcommitment is allowed on your operating system.

  Obtaining array dimensions for all initial allocations:
  
  -----------------------------------------------------------------------
  Parsing control.in (first pass over file, find array dimensions only).
  The contents of control.in will be repeated verbatim below
  unless switched off by setting 'verbatim_writeout .false.' .
  in the first line of control.in .
  -----------------------------------------------------------------------
  
    xc              pbe
    relativistic    zora scalar 1.0e-12
    k_grid          8 8 1
  
    spin		  collinear
    default_initial_moment	0.0
    charge	0.1
    restart_write_only restart
  
    output          Mulliken
  
  
  ################################################################################
  #
  #  FHI-aims code project
  #  VB, Fritz-Haber Institut, 2009
  #
  #  Suggested "light" defaults for Ti atom (to be pasted into control.in file)
  #  Be sure to double-check any results obtained with these settings for post-processing,
  #  e.g., with the "tight" defaults and larger basis sets.
  #
  ################################################################################
    species        Ti
  #     global species definitions
      nucleus             22
      mass                47.867
  #
      l_hartree           4
  #
      cut_pot             3.5          1.5  1.0
      basis_dep_cutoff    1e-4
  #
      radial_base         48 5.0
      radial_multiplier   1
      angular_grids       specified
        division   0.5171   50
        division   0.9824  110
        division   1.2917  194
        division   1.4940  302
  #      division   1.6934  434
  #      division   1.8425  590
  #      division   2.1901  770
  #      division   2.2896  974
  #      division   2.8244 1202
  #      outer_grid  974
        outer_grid  302
  ################################################################################
  #
  #  Definition of "minimal" basis
  #
  ################################################################################
  #     valence basis states
      valence      4  s   2.
      valence      3  p   6.
      valence      3  d   2.
  #     ion occupancy
      ion_occ      4  s   1.
      ion_occ      3  p   6.
      ion_occ      3  d   1.
  ################################################################################
  #
  #  Suggested additional basis functions. For production calculations,
  #  uncomment them one after another (the most important basis functions are
  #  listed first).
  #
  #  Constructed for dimers: 1.6 A, 1.85 A, 2.5 A, 3.25 A, 4.25 A
  #
  ################################################################################
  #  "First tier" - improvements: -396.25 meV to -19.41 meV
       hydro 4 f 8
       hydro 3 d 2.7
       ionic 4 p auto
  #     hydro 5 g 11.6
       ionic 4 s auto
  #  "Second tier" - improvements: -16.30 meV to -2.03 meV
  #     hydro 3 d 4.4
  #     hydro 6 h 16
  #     hydro 4 f 9.4
  #     hydro 4 p 4.5
  #     hydro 1 s 0.5
  #  "Third tier" - improvements: -6.28 meV to -0.37 meV
  #     hydro 4 d 6.4
  #     hydro 4 f 10
  #     hydro 5 g 12
  #     hydro 2 p 1.7
  #     hydro 6 h 16.4
  #     hydro 4 s 3.8
  #  Further basis functions: -0.45 meV and smaller improvements
  #     hydro 3 d 8.8
  #     hydro 5 p 18
  #     hydro 4 f 22.4
  #     hydro 5 f 7.2  # -0.16 meV
  #     hydro 3 d 2.1  # -0.11 meV
  #     hydro 5 g 7.4  # -0.09 meV
  
  
  ################################################################################
  #
  #  FHI-aims code project
  #  VB, Fritz-Haber Institut, 2009
  #
  #  Suggested "light" defaults for O atom (to be pasted into control.in file)
  #  Be sure to double-check any results obtained with these settings for post-processing,
  #  e.g., with the "tight" defaults and larger basis sets.
  #
  ################################################################################
    species        O
  #     global species definitions
      nucleus             8
      mass                15.9994
  #
      l_hartree           4
  #
      cut_pot             3.5  1.5  1.0
      basis_dep_cutoff    1e-4
  #
      radial_base         36 5.0
      radial_multiplier   1
       angular_grids specified
        division   0.2659   50
        division   0.4451  110
        division   0.6052  194
        division   0.7543  302
  #      division   0.8014  434
  #      division   0.8507  590
  #      division   0.8762  770
  #      division   0.9023  974
  #      division   1.2339 1202
  #      outer_grid 974
        outer_grid 302
  ################################################################################
  #
  #  Definition of "minimal" basis
  #
  ################################################################################
  #     valence basis states
      valence      2  s   2.
      valence      2  p   4.
  #     ion occupancy
      ion_occ      2  s   1.
      ion_occ      2  p   3.
  ################################################################################
  #
  #  Suggested additional basis functions. For production calculations,
  #  uncomment them one after another (the most important basis functions are
  #  listed first).
  #
  #  Constructed for dimers: 1.0 A, 1.208 A, 1.5 A, 2.0 A, 3.0 A
  #
  ################################################################################
  #  "First tier" - improvements: -699.05 meV to -159.38 meV
       hydro 2 p 1.8
       hydro 3 d 7.6
       hydro 3 s 6.4
  #  "Second tier" - improvements: -49.91 meV to -5.39 meV
  #     hydro 4 f 11.6
  #     hydro 3 p 6.2
  #     hydro 3 d 5.6
  #     hydro 5 g 17.6
  #     hydro 1 s 0.75
  #  "Third tier" - improvements: -2.83 meV to -0.50 meV
  #     ionic 2 p auto
  #     hydro 4 f 10.8
  #     hydro 4 d 4.7
  #     hydro 2 s 6.8
  #  "Fourth tier" - improvements: -0.40 meV to -0.12 meV
  #     hydro 3 p 5
  #     hydro 3 s 3.3
  #     hydro 5 g 15.6
  #     hydro 4 f 17.6
  #     hydro 4 d 14
  # Further basis functions - -0.08 meV and below
  #     hydro 3 s 2.1
  #     hydro 4 d 11.6
  #     hydro 3 p 16
  #     hydro 2 s 17.2
  
  ################################################################################
  #
  #  "Core" basis functions and numerical settings for O atom.
  #  Based on “tight” defaults (V. Blum, 2009).
  #
  ################################################################################
    species        O1
  #     global species definitions
      nucleus             8.
      mass                15.9994
  #
      l_hartree           6
  #
      cut_pot             4.0  2.0  1.0
      basis_dep_cutoff    1e-4
  #
      radial_base         36 7.0
      radial_multiplier   2
       angular_grids specified
        division   0.1817   50
        division   0.3417  110
        division   0.4949  194
        division   0.6251  302
        division   0.8014  434
  #      division   0.8507  590
  #      division   0.8762  770
  #      division   0.9023  974
  #      division   1.2339 1202
  #      outer_grid 974
        outer_grid  434
  ################################################################################
  #
  #  Definition of "minimal" basis
  #
  ################################################################################
  #     valence basis states
      valence      2  s   2.
      valence      2  p   4.
  #     ion occupancy
      ion_occ      2  s   1.
      ion_occ      2  p   3.
  ################################################################################
  #
  #  Suggested additional basis functions. For production calculations,
  #  uncomment them one after another (the most important basis functions are
  #  listed first).
  #
  #  Constructed for dimers: 1.0 A, 1.208 A, 1.5 A, 2.0 A, 3.0 A
  #
  ################################################################################
  #  "First tier" - improvements: -699.05 meV to -159.38 meV
       hydro 2 p 1.8
       hydro 3 d 7.6
       hydro 3 s 6.4
  #  "Second tier" - improvements: -49.91 meV to -5.39 meV
       hydro 4 f 11.6
       hydro 3 p 6.2
       hydro 3 d 5.6
       hydro 5 g 17.6
       hydro 1 s 0.75
  #  "Third tier" - improvements: -2.83 meV to -0.50 meV
       ionic 2 p auto
       hydro 4 f 10.8
       hydro 4 d 4.7
       hydro 2 s 6.8
  #  "Fourth tier" - improvements: -0.40 meV to -0.12 meV
  #     hydro 3 p 5
  #     hydro 3 s 3.3
  #     hydro 5 g 15.6
  #     hydro 4 f 17.6
  #     hydro 4 d 14
  # Further basis functions - -0.08 meV and below
  #     hydro 3 s 2.1
  #     hydro 4 d 11.6
  #     hydro 3 p 16
  #     hydro 2 s 17.2
  
  # Additional basis functions for atom with a core hole
       hydro 1 s 12.0
       hydro 1 s 10.0
       hydro 1 s 6.0
       hydro 2 s 10.0
       hydro 2 p 8.0
       hydro 2 p 6.0
       hydro 3 d 8.0
  
  -----------------------------------------------------------------------
  Completed first pass over input file control.in .
  -----------------------------------------------------------------------
  
  
  -----------------------------------------------------------------------
  Parsing geometry.in (first pass over file, find array dimensions only).
  The contents of geometry.in will be repeated verbatim below
  unless switched off by setting 'verbatim_writeout .false.' .
  in the first line of geometry.in .
  -----------------------------------------------------------------------
  
  lattice_vector 6.566127 0.000000 0.000000
  lattice_vector 0.000000 5.945766 0.000000
  lattice_vector 0.000000 0.000000 22.332457
  
  atom_frac 0.999994 0.000000 0.368597 O
  atom_frac 0.305556 0.250000 0.425767 O
  atom_frac 0.499997 0.000000 0.425768 Ti
  atom_frac 0.999997 0.250000 0.425768 Ti
  atom_frac 0.694439 0.250000 0.425769 O
  atom_frac 0.000001 0.000000 0.482939 O
  atom_frac 0.499991 0.000000 0.515613 O
  atom_frac 0.805553 0.250000 0.572783 O
  atom_frac 0.999995 0.000000 0.572784 Ti
  atom_frac 0.499995 0.250000 0.572784 Ti
  atom_frac 0.194436 0.250000 0.572786 O
  atom_frac 0.499998 0.000000 0.629955 O
  atom_frac 0.999994 0.500000 0.368597 O
  atom_frac 0.305556 0.750000 0.425767 O
  atom_frac 0.499997 0.500000 0.425768 Ti
  atom_frac 0.999997 0.750000 0.425768 Ti
  atom_frac 0.694439 0.750000 0.425769 O
  atom_frac 0.000001 0.500000 0.482939 O
  atom_frac 0.499991 0.500000 0.515613 O1
  atom_frac 0.805553 0.750000 0.572783 O
  atom_frac 0.999995 0.500000 0.572784 Ti
  atom_frac 0.499995 0.750000 0.572784 Ti
  atom_frac 0.194436 0.750000 0.572786 O
  atom_frac 0.499998 0.500000 0.629955 O
  
  -----------------------------------------------------------------------
  Completed first pass over input file geometry.in .
  -----------------------------------------------------------------------
  

  Basic array size parameters:
  | Number of species                 :        3
  | Number of atoms                   :       24
  | Number of lattice vectors         :        3
  | Max. basis fn. angular momentum   :        4
  | Max. atomic/ionic basis occupied n:        4
  | Max. number of basis fn. types    :        3
  | Max. radial fns per species/type  :       18
  | Max. logarithmic grid size        :     1383
  | Max. radial integration grid size :       73
  | Max. angular integration grid size:      434
  | Max. angular grid division number :        8
  | Radial grid for Hartree potential :     1383
  | Number of spin channels           :        2

------------------------------------------------------------
          Reading file control.in.
------------------------------------------------------------
  XC: Using PBE gradient-corrected functionals.
  Scalar relativistic treatment of kinetic energy: ZORA.
  Threshold value for ZORA:   0.100000E-11
  Found k-point grid:         8         8         1
  Spin treatment: Spin density functional theory - collinear spins.
  Initial spin moment per atom:   0.0000
  Charged system requested: Charge =   0.100000E+00.
  Writing restart information to file restart000
  Mulliken charge analysis will be performed and summarised to the main output.
  Full Mulliken charge analysis will be written to file 'Mulliken.out'.
 
  Reading configuration options for species Ti                  .
  | Found nuclear charge :  22.0000
  | Found atomic mass :    47.8670000000000      amu
  | Found l_max for Hartree potential  :   4
  | Found cutoff potl. onset [A], width [A], scale factor :    3.50000    1.50000    1.00000
  | Threshold for basis-dependent cutoff potential is   0.100000E-03
  | Found data for basic radial integration grid :    48 points, outermost radius =    5.000 A
  | Found multiplier for basic radial grid :   1
  | Found angular grid specification: user-specified.
  | Specified grid contains     5 separate shells.
  | Check grid settings after all constraints further below.
  | Found free-atom valence shell :  4 s   2.000
  | Found free-atom valence shell :  3 p   6.000
  | Found free-atom valence shell :  3 d   2.000
  | Found free-ion valence shell :  4 s   1.000
  | Found free-ion valence shell :  3 p   6.000
  | Found free-ion valence shell :  3 d   1.000
  | Found hydrogenic basis function :  4 f   8.000
  | Found hydrogenic basis function :  3 d   2.700
  | Found ionic basis function :  4 p , default cutoff radius.
  | Found ionic basis function :  4 s , default cutoff radius.
 | Encountered keyword species, ending the description of species Ti                  .
  Species Ti                  : Missing cutoff potential type.
  Defaulting to exp(1/x)/(1-x)^2 type cutoff potential.
  Species Ti: No 'logarithmic' tag. Using default grid for free atom:
  | Default logarithmic grid data [bohr] : 0.1000E-03 0.1000E+03 0.1012E+01
  | Will include ionic basis functions of  2.0-fold positive Ti                   ion.
  Species Ti: On-site basis accuracy parameter (for Gram-Schmidt orthonormalisation) not specified.
  Using default value basis_acc =  0.1000000E-03.
  Species Ti                  : Using default innermost maximum threshold i_radial=  2 for radial functions.
  Species Ti                  : Default cutoff onset for free atom density etc. : 0.35000000E+01 AA.
  Species Ti                  : Basic radial grid will be enhanced according to radial_multiplier =   1, to contain    48 grid points.
 
  Reading configuration options for species O                   .
  | Found nuclear charge :   8.0000
  | Found atomic mass :    15.9994000000000      amu
  | Found l_max for Hartree potential  :   4
  | Found cutoff potl. onset [A], width [A], scale factor :    3.50000    1.50000    1.00000
  | Threshold for basis-dependent cutoff potential is   0.100000E-03
  | Found data for basic radial integration grid :    36 points, outermost radius =    5.000 A
  | Found multiplier for basic radial grid :   1
  | Found angular grid specification: user-specified.
  | Specified grid contains     5 separate shells.
  | Check grid settings after all constraints further below.
  | Found free-atom valence shell :  2 s   2.000
  | Found free-atom valence shell :  2 p   4.000
  | Found free-ion valence shell :  2 s   1.000
  | Found free-ion valence shell :  2 p   3.000
  | Found hydrogenic basis function :  2 p   1.800
  | Found hydrogenic basis function :  3 d   7.600
  | Found hydrogenic basis function :  3 s   6.400
 | Encountered keyword species, ending the description of species O                   .
  Species O                   : Missing cutoff potential type.
  Defaulting to exp(1/x)/(1-x)^2 type cutoff potential.
  Species O : No 'logarithmic' tag. Using default grid for free atom:
  | Default logarithmic grid data [bohr] : 0.1000E-03 0.1000E+03 0.1012E+01
  Species O : On-site basis accuracy parameter (for Gram-Schmidt orthonormalisation) not specified.
  Using default value basis_acc =  0.1000000E-03.
  Species O                   : Using default innermost maximum threshold i_radial=  2 for radial functions.
  Species O                   : Default cutoff onset for free atom density etc. : 0.35000000E+01 AA.
  Species O                   : Basic radial grid will be enhanced according to radial_multiplier =   1, to contain    36 grid points.
 
  Reading configuration options for species O1                  .
  | Found nuclear charge :   8.0000
  | Found atomic mass :    15.9994000000000      amu
  | Found l_max for Hartree potential  :   6
  | Found cutoff potl. onset [A], width [A], scale factor :    4.00000    2.00000    1.00000
  | Threshold for basis-dependent cutoff potential is   0.100000E-03
  | Found data for basic radial integration grid :    36 points, outermost radius =    7.000 A
  | Found multiplier for basic radial grid :   2
  | Found angular grid specification: user-specified.
  | Specified grid contains     6 separate shells.
  | Check grid settings after all constraints further below.
  | Found free-atom valence shell :  2 s   2.000
  | Found free-atom valence shell :  2 p   4.000
  | Found free-ion valence shell :  2 s   1.000
  | Found free-ion valence shell :  2 p   3.000
  | Found hydrogenic basis function :  2 p   1.800
  | Found hydrogenic basis function :  3 d   7.600
  | Found hydrogenic basis function :  3 s   6.400
  | Found hydrogenic basis function :  4 f  11.600
  | Found hydrogenic basis function :  3 p   6.200
  | Found hydrogenic basis function :  3 d   5.600
  | Found hydrogenic basis function :  5 g  17.600
  | Found hydrogenic basis function :  1 s   0.750
  | Found ionic basis function :  2 p , default cutoff radius.
  | Found hydrogenic basis function :  4 f  10.800
  | Found hydrogenic basis function :  4 d   4.700
  | Found hydrogenic basis function :  2 s   6.800
  | Found hydrogenic basis function :  1 s  12.000
  | Found hydrogenic basis function :  1 s  10.000
  | Found hydrogenic basis function :  1 s   6.000
  | Found hydrogenic basis function :  2 s  10.000
  | Found hydrogenic basis function :  2 p   8.000
  | Found hydrogenic basis function :  2 p   6.000
  | Found hydrogenic basis function :  3 d   8.000
  Species O1                  : Missing cutoff potential type.
  Defaulting to exp(1/x)/(1-x)^2 type cutoff potential.
  Species O1: No 'logarithmic' tag. Using default grid for free atom:
  | Default logarithmic grid data [bohr] : 0.1000E-03 0.1000E+03 0.1012E+01
  | Will include ionic basis functions of  2.0-fold positive O1                   ion.
  Species O1: On-site basis accuracy parameter (for Gram-Schmidt orthonormalisation) not specified.
  Using default value basis_acc =  0.1000000E-03.
  Species O1                  : Using default innermost maximum threshold i_radial=  2 for radial functions.
  Species O1                  : Default cutoff onset for free atom density etc. : 0.40000000E+01 AA.
  Species O1                  : Basic radial grid will be enhanced according to radial_multiplier =   2, to contain    73 grid points.
 
  Finished reading input file 'control.in'.
 
------------------------------------------------------------


------------------------------------------------------------
          Reading geometry description geometry.in.
------------------------------------------------------------
  | The smallest distance between any two atoms is         1.95947270 AA.
  | The first atom of this pair is atom number                      2 .
  | The second atom of this pair is atom number                     3 .
  | Wigner-Seitz cell of the first atom image           0     0     0 .
  | (The Wigner-Seitz cell of the second atom is 0 0 0  by definition.)

  Symmetry information by spglib:
  | Precision set to  0.1E-04
  | Number of Operations  : 2
  | Space group           : 6
  | International         : Pm      /op
  | Schoenflies           : Cs^1
  Input structure read successfully.
  The structure contains       24 atoms,  and a total of        303.900 electrons.

  Input geometry:
  | Unit cell:
  |        6.56612700        0.00000000        0.00000000
  |        0.00000000        5.94576600        0.00000000
  |        0.00000000        0.00000000       22.33245700
  | Atomic structure:
  |       Atom                x [A]            y [A]            z [A]
  |    1: Species O             6.56608760        0.00000000        8.23167665
  |    2: Species O             2.00631950        1.48644150        9.50842322
  |    3: Species Ti            3.28304380        0.00000000        9.50844555
  |    4: Species Ti            6.56610730        1.48644150        9.50844555
  |    5: Species O             4.55977467        1.48644150        9.50846788
  |    6: Species O             0.00000657        0.00000000       10.78521445
  |    7: Species O             3.28300440        0.00000000       11.51490515
  |    8: Species O             5.28936330        1.48644150       12.79165172
  |    9: Species Ti            6.56609417        0.00000000       12.79167405
  |   10: Species Ti            3.28303067        1.48644150       12.79167405
  |   11: Species O             1.27669147        1.48644150       12.79171872
  |   12: Species O             3.28305037        0.00000000       14.06844295
  |   13: Species O             6.56608760        2.97288300        8.23167665
  |   14: Species O             2.00631950        4.45932450        9.50842322
  |   15: Species Ti            3.28304380        2.97288300        9.50844555
  |   16: Species Ti            6.56610730        4.45932450        9.50844555
  |   17: Species O             4.55977467        4.45932450        9.50846788
  |   18: Species O             0.00000657        2.97288300       10.78521445
  |   19: Species O1            3.28300440        2.97288300       11.51490515
  |   20: Species O             5.28936330        4.45932450       12.79165172
  |   21: Species Ti            6.56609417        2.97288300       12.79167405
  |   22: Species Ti            3.28303067        4.45932450       12.79167405
  |   23: Species O             1.27669147        4.45932450       12.79171872
  |   24: Species O             3.28305037        2.97288300       14.06844295

  Lattice parameters for 3D lattice (in Angstroms) :     6.566127    5.945766   22.332457
  Angle(s) between unit vectors (in degrees)       :    90.000000   90.000000   90.000000


  Quantities derived from the lattice vectors (in Angstrom^-1):
  | Reciprocal lattice vector 1:  0.956909  0.000000  0.000000
  | Reciprocal lattice vector 2:  0.000000  1.056750  0.000000
  | Reciprocal lattice vector 3:  0.000000  0.000000  0.281348
  | Unit cell volume                               :   0.871874E+03  Angstrom^3

  Fractional coordinates:
                         L1                L2                L3
       atom_frac         0.99999400        0.00000000        0.36859700  O
       atom_frac         0.30555600        0.25000000        0.42576700  O
       atom_frac         0.49999700        0.00000000        0.42576800  Ti
       atom_frac         0.99999700        0.25000000        0.42576800  Ti
       atom_frac         0.69443900        0.25000000        0.42576900  O
       atom_frac         0.00000100        0.00000000        0.48293900  O
       atom_frac         0.49999100        0.00000000        0.51561300  O
       atom_frac         0.80555300        0.25000000        0.57278300  O
       atom_frac         0.99999500        0.00000000        0.57278400  Ti
       atom_frac         0.49999500        0.25000000        0.57278400  Ti
       atom_frac         0.19443600        0.25000000        0.57278600  O
       atom_frac         0.49999800        0.00000000        0.62995500  O
       atom_frac         0.99999400        0.50000000        0.36859700  O
       atom_frac         0.30555600        0.75000000        0.42576700  O
       atom_frac         0.49999700        0.50000000        0.42576800  Ti
       atom_frac         0.99999700        0.75000000        0.42576800  Ti
       atom_frac         0.69443900        0.75000000        0.42576900  O
       atom_frac         0.00000100        0.50000000        0.48293900  O
       atom_frac         0.49999100        0.50000000        0.51561300  O1
       atom_frac         0.80555300        0.75000000        0.57278300  O
       atom_frac         0.99999500        0.50000000        0.57278400  Ti
       atom_frac         0.49999500        0.75000000        0.57278400  Ti
       atom_frac         0.19443600        0.75000000        0.57278600  O
       atom_frac         0.49999800        0.50000000        0.62995500  O

  Initial moments and charges:
  |  Atom   Moment         Charge        Species
  |     1   0.000000E+00   0.000000E+00   O
  |     2   0.000000E+00   0.000000E+00   O
  |     3   0.000000E+00   0.000000E+00   Ti
  |     4   0.000000E+00   0.000000E+00   Ti
  |     5   0.000000E+00   0.000000E+00   O
  |     6   0.000000E+00   0.000000E+00   O
  |     7   0.000000E+00   0.000000E+00   O
  |     8   0.000000E+00   0.000000E+00   O
  |     9   0.000000E+00   0.000000E+00   Ti
  |    10   0.000000E+00   0.000000E+00   Ti
  |    11   0.000000E+00   0.000000E+00   O
  |    12   0.000000E+00   0.000000E+00   O
  |    13   0.000000E+00   0.000000E+00   O
  |    14   0.000000E+00   0.000000E+00   O
  |    15   0.000000E+00   0.000000E+00   Ti
  |    16   0.000000E+00   0.000000E+00   Ti
  |    17   0.000000E+00   0.000000E+00   O
  |    18   0.000000E+00   0.000000E+00   O
  |    19   0.000000E+00   0.000000E+00   O1
  |    20   0.000000E+00   0.000000E+00   O
  |    21   0.000000E+00   0.000000E+00   Ti
  |    22   0.000000E+00   0.000000E+00   Ti
  |    23   0.000000E+00   0.000000E+00   O
  |    24   0.000000E+00   0.000000E+00   O

  Slab Identifier: This is Z-oriented slab and maximum thickness of the vacuum is: 16.496 Angstrom.
 
  Finished reading input file 'geometry.in'.
 

 
  Consistency checks for stacksize environment parameter are next.
 
  | Maximum stacksize for task 0: unlimited
  | Maximum stacksize for task 1: unlimited
  | Maximum stacksize for task 2: unlimited
  | Maximum stacksize for task 3: unlimited
  | Maximum stacksize for task 4: unlimited
  | Maximum stacksize for task 5: unlimited
  | Maximum stacksize for task 6: unlimited
  | Maximum stacksize for task 7: unlimited
  | Maximum stacksize for task 8: unlimited
  | Maximum stacksize for task 9: unlimited
  | Maximum stacksize for task 10: unlimited
  | Maximum stacksize for task 11: unlimited
  | Maximum stacksize for task 12: unlimited
  | Maximum stacksize for task 13: unlimited
  | Maximum stacksize for task 14: unlimited
  | Maximum stacksize for task 15: unlimited
  | Maximum stacksize for task 16: unlimited
  | Maximum stacksize for task 17: unlimited
  | Maximum stacksize for task 18: unlimited
  | Maximum stacksize for task 19: unlimited
  | Maximum stacksize for task 20: unlimited
  | Maximum stacksize for task 21: unlimited
  | Maximum stacksize for task 22: unlimited
  | Maximum stacksize for task 23: unlimited
  | Maximum stacksize for task 24: unlimited
  | Maximum stacksize for task 25: unlimited
  | Maximum stacksize for task 26: unlimited
  | Maximum stacksize for task 27: unlimited
  | Maximum stacksize for task 28: unlimited
  | Maximum stacksize for task 29: unlimited
  | Maximum stacksize for task 30: unlimited
  | Maximum stacksize for task 31: unlimited
  | Current stacksize for task 0: unlimited
  | Current stacksize for task 1: unlimited
  | Current stacksize for task 2: unlimited
  | Current stacksize for task 3: unlimited
  | Current stacksize for task 4: unlimited
  | Current stacksize for task 5: unlimited
  | Current stacksize for task 6: unlimited
  | Current stacksize for task 7: unlimited
  | Current stacksize for task 8: unlimited
  | Current stacksize for task 9: unlimited
  | Current stacksize for task 10: unlimited
  | Current stacksize for task 11: unlimited
  | Current stacksize for task 12: unlimited
  | Current stacksize for task 13: unlimited
  | Current stacksize for task 14: unlimited
  | Current stacksize for task 15: unlimited
  | Current stacksize for task 16: unlimited
  | Current stacksize for task 17: unlimited
  | Current stacksize for task 18: unlimited
  | Current stacksize for task 19: unlimited
  | Current stacksize for task 20: unlimited
  | Current stacksize for task 21: unlimited
  | Current stacksize for task 22: unlimited
  | Current stacksize for task 23: unlimited
  | Current stacksize for task 24: unlimited
  | Current stacksize for task 25: unlimited
  | Current stacksize for task 26: unlimited
  | Current stacksize for task 27: unlimited
  | Current stacksize for task 28: unlimited
  | Current stacksize for task 29: unlimited
  | Current stacksize for task 30: unlimited
  | Current stacksize for task 31: unlimited
 
  Consistency checks for the contents of control.in are next.
 
  MPI_IN_PLACE appears to work with this MPI implementation.
  | Keeping use_mpi_in_place .true. (see manual).
  Target number of points in a grid batch is not set. Defaulting to  100
  Method for grid partitioning is not set. Defaulting to parallel hash+maxmin partitioning.
  Batch size limit is not set. Defaulting to    200
  By default, will store active basis functions for each batch.
  If in need of memory, prune_basis_once .false. can be used to disable this option.
  communication_type for Hartree potential was not specified.
  Defaulting to calc_hartree .
  Defaulting to Pulay charge density mixer.
  Pulay mixer: Number of relevant iterations not set.
  Defaulting to    8 iterations.
  Pulay mixer: Number of initial linear mixing iterations not set.
  Defaulting to    0 iterations.
  Work space size for distributed Hartree potential not set.
  Defaulting to   0.200000E+03 MB.
  Mixing parameter for charge density mixing has not been set.
  Using default: charge_mix_param =     0.0500.
  The mixing parameter will be adjusted in iteration number     2 of each s.c.f. cycle (i.e., each geometry step).
  Mixing parameter for spin density mixing has not been set.
  Using charge_mix_param as default:     0.0500.
  Algorithm-dependent basis array size parameters:
  | n_max_pulay                         :        8
  Maximum number of self-consistency iterations not provided.
  Presetting  1000 iterations.
  Presetting      1001 iterations before the initial mixing cycle
  is restarted anyway using the sc_init_iter criterion / keyword.
  Presetting a factor      1.000 between actual scf density residual
  and density convergence criterion sc_accuracy_rho below which sc_init_iter
  takes no effect.
 * No s.c.f. convergence criteria (sc_accuracy_*) were provided in control.in.
 * The run will proceed with a reasonable default guess, but please check whether.
 * the s.c.f. cycles seem to take too much or too little time.
  Calculation of forces was not defined in control.in. No forces will be calculated.
  Geometry relaxation not requested: no relaxation will be performed.
 * Notice: The s.c.f. convergence criterion sc_accuracy_rho was not provided.
 * We used to stop in this case, and ask the user to provide reasonable
 * scf convergence criteria. However, this led some users to employ criteria
 * that led to extremely long run times, e.g., for simple relaxation.
 * We now preset a default value for sc_accuracy_rho if it is not set.
 * You may still wish to check if this setting is too tight or too loose for your needs.
 * Based on n_atoms and forces and force-correction status, FHI-aims chose sc_accuracy_rho =  0.200000E-05 .
  No accuracy limit for integral partition fn. given. Defaulting to  0.1000E-14.
  No threshold value for u(r) in integrations given. Defaulting to  0.1000E-05.
  No occupation type (smearing scheme) given. Defaulting to Gaussian broadening, width =  0.1000E-01 eV.
  The width will be adjusted in iteration number     2 of each s.c.f. cycle (i.e., each geometry step).
  No accuracy for occupation numbers given. Defaulting to  0.1000E-12.
  No threshold value for occupation numbers given. Defaulting to  0.0000E+00.
  No accuracy for fermi level given. Defaulting to  0.1000E-19.
  Maximum # of iterations to find E_F not set. Defaulting to  200.
  Preferred method for the eigenvalue solver ('KS_method') not specified in 'control.in'.
  Defaulting to serial version, LAPACK (via ELSI), since more k-points than CPUs available.
  Will not use alltoall communication since running on < 1024 CPUs.
  Threshold for basis singularities not set.
  Default threshold for basis singularities:  0.1000E-04
  partition_type (choice of integration weights) for integrals was not specified.
  | Using a version of the partition function of Stratmann and coworkers ('stratmann_sparse').
  | At each grid point, the set of atoms used to build the partition table is smoothly restricted to
  | only those atoms whose free-atom density would be non-zero at that grid point.
  Partitioning for Hartree potential was not defined. Using partition_type for integrals.
  | Adjusted default value of keyword multip_moments_threshold to:       0.10000000E-11
  | This value may affect high angular momentum components of the Hartree potential in periodic systems.
  Angular momentum expansion for Kerker preconditioner not set explicitly.
  | Using default value of   0
  No explicit requirement for turning off preconditioner.
  | By default, it will be turned off when the charge convergence reaches
  | sc_accuracy_rho  =   0.200000E-05
  No special mixing parameter while Kerker preconditioner is on.
  Using default: charge_mix_param =     0.0500.
  No q(lm)/r^(l+1) cutoff set for long-range Hartree potential.
  | Using default value of  0.100000E-09 .
  | Verify using the multipole_threshold keyword.
  Defaulting to new monopole extrapolation.
  Density update method: automatic selection selected.
  Using density matrix based charge density update.
  Using density matrix based charge density update.
  Using packed matrix style: index .
  Defaulting to use time-reversal symmetry for k-point grid.
  Charge integration errors on the 3D integration grid will be compensated
  by explicit normalization and distribution of residual charges.
  Use the "compensate_multipole_errors" flag to change this behaviour.
  Set 'collect_eigenvectors' to be '.true.' for all serial calculations. This is mandatory.
  Set 'collect_eigenvectors' to be '.true.' for KS_method lapack_fast and serial.
  Found potential conflicts with setting 'use_local_index' for this calculation. Will not set it.
 
  Consistency checks for the contents of geometry.in are next.
 

  Range separation radius for Ewald summation (hartree_convergence_parameter):      4.81466675 bohr.
 * Warning: Initial charge and total charge of the system are inconsistent.
 * Selected charge in control.in:     0.1000* Sum of initial charges in geometry.in:     0.0000
  Number of empty states per atom not set in control.in - providing a guess from actual geometry.
  | Total number of empty states used during s.c.f. cycle:       92
  If you use a very high smearing, use empty_states (per atom!) in control.in to increase this value.

  Structure-dependent array size parameters: 
  | Number of distinct atom types in initial rho :        3
  | Maximum number of distinct radial functions  :       39
  | Maximum number of basis functions            :      528
  | Number of Kohn-Sham states (occupied + empty):      244
------------------------------------------------------------
  After read_input_data [GB]:   1041.27

  Performing system and environment tests:
  *** Environment variable OMP_NUM_THREADS is not set
  *** For performance reasons you might want to set it to 1
  | Checking for ScaLAPACK...
  | Testing pdtran()...
  | All pdtran() tests passed.
  After prepare_system [GB]:   1041.14

------------------------------------------------------------
          Preparing all fixed parts of the calculation.
------------------------------------------------------------
  Determining machine precision:
    2.225073858507201E-308
  Setting up grids for atomic and cluster calculations.

  Creating wave function, potential, and density for free atoms.
  Runtime choices for atomic solver:
  | atomic solver xc        : PBE
  | compute density gradient: 1
  | compute kinetic density : F

  Species: Ti

  List of occupied orbitals and eigenvalues:
    n    l              occ      energy [Ha]    energy [eV]
    1    0           2.0000      -179.959082     -4896.9358
    2    0           2.0000       -19.727662      -536.8170
    3    0           2.0000        -2.283029       -62.1244
    4    0           2.0000        -0.148384        -4.0377
    2    1           6.0000       -16.317278      -444.0157
    3    1           6.0000        -1.409348       -38.3503
    3    2           2.0000        -0.139340        -3.7916


  Species: O

  List of occupied orbitals and eigenvalues:
    n    l              occ      energy [Ha]    energy [eV]
    1    0           2.0000       -18.926989      -515.0296
    2    0           2.0000        -0.880247       -23.9527
    2    1           4.0000        -0.331514        -9.0210


  Species: O1

  List of occupied orbitals and eigenvalues:
    n    l              occ      energy [Ha]    energy [eV]
    1    0           2.0000       -18.927378      -515.0401
    2    0           2.0000        -0.880539       -23.9607
    2    1           4.0000        -0.331811        -9.0290

  Spin-polarized or charged system:
  Charge density initialized according to selected moments and charges.

  Creating spin-polarized density from free atoms.

  Species: O
  Charge:   0.000000
  Moment:   0.000000

  List of occupied orbitals and eigenvalues:
    n    l      energy [Ha]    energy [eV]    occupation
  Spin-up
    1    0       -18.926989      -515.0296     1.00000000
    2    0        -0.880247       -23.9527     1.00000000
    2    1        -0.331514        -9.0210     2.00000000
  Spin-down
    1    0       -18.926989      -515.0296     1.00000000
    2    0        -0.880247       -23.9527     1.00000000
    2    1        -0.331514        -9.0210     2.00000000


  Species: Ti
  Charge:   0.000000
  Moment:   0.000000

  List of occupied orbitals and eigenvalues:
    n    l      energy [Ha]    energy [eV]    occupation
  Spin-up
    1    0      -179.959082     -4896.9358     1.00000000
    2    0       -19.727662      -536.8170     1.00000000
    3    0        -2.283029       -62.1244     1.00000000
    4    0        -0.148384        -4.0377     1.00000000
    2    1       -16.317278      -444.0157     3.00000000
    3    1        -1.409348       -38.3503     3.00000000
    3    2        -0.139340        -3.7916     1.00000000
  Spin-down
    1    0      -179.959082     -4896.9358     1.00000000
    2    0       -19.727662      -536.8170     1.00000000
    3    0        -2.283029       -62.1244     1.00000000
    4    0        -0.148384        -4.0377     1.00000000
    2    1       -16.317278      -444.0157     3.00000000
    3    1        -1.409348       -38.3503     3.00000000
    3    2        -0.139340        -3.7916     1.00000000


  Species: O1
  Charge:   0.000000
  Moment:   0.000000

  List of occupied orbitals and eigenvalues:
    n    l      energy [Ha]    energy [eV]    occupation
  Spin-up
    1    0       -18.927378      -515.0401     1.00000000
    2    0        -0.880539       -23.9607     1.00000000
    2    1        -0.331811        -9.0290     2.00000000
  Spin-down
    1    0       -18.927378      -515.0401     1.00000000
    2    0        -0.880539       -23.9607     1.00000000
    2    1        -0.331811        -9.0290     2.00000000


  Adding cutoff potential to free-atom effective potential.
  Creating fixed part of basis set: Ionic, confined, hydrogenic.
 
  Ti                   ion:

  List of free ionic orbitals and eigenvalues:
    n    l      energy [Ha]    energy [eV]
    1    0      -180.819616     -4920.3521
    2    0       -20.608761      -560.7929
    3    0        -3.115729       -84.7833
    4    0        -0.697188       -18.9715
    2    1       -17.196209      -467.9327
    3    1        -2.231296       -60.7167
    3    2        -0.911363       -24.7995


  List of ionic basis orbitals and eigenvalues:
    n    l      energy [Ha]    energy [eV]    outer radius [A]
    4    1        -0.517739       -14.0884       4.592117
    4    0        -0.696824       -18.9615       4.536321

 
  Ti                   hydrogenic:
 
  List of hydrogenic basis orbitals: 
    n    l      effective z      eigenvalue [eV]  inner max. [A]     outer max. [A]     outer radius [A]   
    4    3         8.000000       -54.4222           1.059019           1.059019           4.267343
    3    2         2.700000       -10.7798           1.726925           1.726925           4.592117
 
 
  O                    hydrogenic:
 
  List of hydrogenic basis orbitals: 
    n    l      effective z      eigenvalue [eV]  inner max. [A]     outer max. [A]     outer radius [A]   
    2    1         1.800000       -10.9749           1.164242           1.164242           4.578029
    3    2         7.600000       -87.3180           0.624125           0.624125           3.251020
    3    0         6.400000       -61.9207           0.061167           1.081902           4.001998
 
 
  O1                   ion:

  List of free ionic orbitals and eigenvalues:
    n    l      energy [Ha]    energy [eV]
    1    0       -20.485570      -557.4407
    2    0        -2.134830       -58.0917
    2    1        -1.577627       -42.9294


  List of ionic basis orbitals and eigenvalues:
    n    l      energy [Ha]    energy [eV]    outer radius [A]
    2    1        -1.577621       -42.9293       3.541477

 
  O1                   hydrogenic:
 
  List of hydrogenic basis orbitals: 
    n    l      effective z      eigenvalue [eV]  inner max. [A]     outer max. [A]     outer radius [A]   
    2    1         1.800000       -11.0118           1.178562           1.178562           5.432602
    3    2         7.600000       -87.3182           0.624125           0.624125           3.541477
    3    0         6.400000       -61.9209           0.061167           1.081902           4.306578
    4    3        11.600000      -114.4238           0.731631           0.731631           3.585037
    3    1         6.200000       -58.1113           0.255680           1.030270           4.306578
    3    2         5.600000       -47.4081           0.847233           0.847233           4.413171
    5    4        17.600000      -168.5799           0.749740           0.749740           3.372465
    1    0         0.750000        -7.6499           0.705284           0.705284           5.366593
    4    3        10.800000       -99.1854           0.787313           0.787313           3.764702
    4    2         4.700000       -18.6841           0.758962           2.365807           5.499423
    2    0         6.800000      -157.2818           0.059689           0.406863           2.739620
    1    0        12.000000     -1959.2197           0.043971           0.043971           0.816724
    1    0        10.000000     -1360.5692           0.052821           0.052821           0.981101
    1    0         6.000000      -489.8049           0.088266           0.088266           1.561224
    2    0        10.000000      -340.1423           0.040365           0.278524           2.093567
    2    1         8.000000      -217.6911           0.265231           0.265231           2.365807
    2    1         6.000000      -122.4512           0.351348           0.351348           2.841960
    3    2         8.000000       -96.7515           0.594340           0.594340           3.455938
 
  Creating atomic-like basis functions for current effective potential.

  Species Ti                  :

  List of atomic basis orbitals and eigenvalues:
    n    l      energy [Ha]    energy [eV]    outer radius [A]
    1    0      -179.959082     -4896.9358       0.490254
    2    0       -19.727662      -536.8170       1.491292
    3    0        -2.283029       -62.1244       4.014314
    4    0        -0.148384        -4.0377       4.592117
    2    1       -16.317278      -444.0157       1.585290
    3    1        -1.409348       -38.3503       4.267343
    3    2        -0.139340        -3.7916       4.536321


  Species O                   :

  List of atomic basis orbitals and eigenvalues:
    n    l      energy [Ha]    energy [eV]    outer radius [A]
    1    0       -18.926989      -515.0296       1.415765
    2    0        -0.880247       -23.9527       4.413171
    2    1        -0.331514        -9.0210       4.522403


  Species O1                  :

  List of atomic basis orbitals and eigenvalues:
    n    l      energy [Ha]    energy [eV]    outer radius [A]
    1    0       -18.927378      -515.0401       1.415765
    2    0        -0.880539       -23.9607       5.048385
    2    1        -0.331811        -9.0290       5.301386

  Assembling full basis from fixed parts.
  | Species Ti :   atomic orbital   1 s accepted.
  | Species Ti :   atomic orbital   2 s accepted.
  | Species Ti :   atomic orbital   3 s accepted.
  | Species Ti :    ionic orbital   4 s accepted.
  | Species Ti :   atomic orbital   4 s accepted.
  | Species Ti :   atomic orbital   2 p accepted.
  | Species Ti :   atomic orbital   3 p accepted.
  | Species Ti :    ionic orbital   4 p accepted.
  | Species Ti :   atomic orbital   3 d accepted.
  | Species Ti :    hydro orbital   3 d accepted.
  | Species Ti :    hydro orbital   4 f accepted.
  | Species O :   atomic orbital   1 s accepted.
  | Species O :    hydro orbital   3 s accepted.
  | Species O :   atomic orbital   2 s accepted.
  | Species O :   atomic orbital   2 p accepted.
  | Species O :    hydro orbital   2 p accepted.
  | Species O :    hydro orbital   3 d accepted.
  | Species O1 :    hydro orbital   1 s accepted.
  | Species O1 :    hydro orbital   1 s accepted.
  | Species O1 :   atomic orbital   1 s accepted.
  | Species O1 :    hydro orbital   1 s accepted.
  | Species O1 :    hydro orbital   2 s accepted.
  | Species O1 :    hydro orbital   2 s accepted.
  | Species O1 :    hydro orbital   3 s accepted.
  | Species O1 :   atomic orbital   2 s accepted.
  | Species O1 :    hydro orbital   1 s accepted.
  | Species O1 :    hydro orbital   2 p accepted.
  | Species O1 :    hydro orbital   2 p accepted.
  | Species O1 :    ionic orbital   2 p accepted.
  | Species O1 :    hydro orbital   3 p accepted.
  | Species O1 :   atomic orbital   2 p accepted.
  | Species O1 :    hydro orbital   2 p accepted.
  | Species O1 :    hydro orbital   3 d accepted.
  | Species O1 :    hydro orbital   3 d accepted.
  | Species O1 :    hydro orbital   3 d accepted.
  | Species O1 :    hydro orbital   4 d accepted.
  | Species O1 :    hydro orbital   4 f accepted.
  | Species O1 :    hydro orbital   4 f accepted.
  | Species O1 :    hydro orbital   5 g accepted.
 
  Basis size parameters after reduction:
  | Total number of radial functions:       39
  | Total number of basis functions :      528
 
  Per-task memory consumption for arrays in subroutine allocate_ext:
  |          10.373196MB.
  Testing on-site integration grid accuracy.
  |  Species  Function  <phi|h_atom|phi> (log., in eV)  <phi|h_atom|phi> (rad., in eV)
           1        1              -4896.9357674450              -4896.9322838106
           1        2               -536.8170048508               -536.8169722776
           1        3                -62.1243896260                -62.1243889401
           1        4                 -3.2653235630                 -3.2692838824
           1        5                  6.7987747276                  6.5460721871 ***
           1        6               -444.0157161949               -444.0157165643
           1        7                -38.3503235548                -38.3503234985
           1        8                  0.2923930877                  0.2745948114
           1        9                 -3.7933400649                 -3.7959244171
           1       10                  6.3288803616                  6.2510614935 ***
           1       11                 27.8451455747                 27.8452636415
           2       12               -515.0295626295               -515.0294562869
           2       13                 15.1698434419                 15.1699322205
           2       14                -21.6038822678                -21.6039118108
           2       15                 -9.0211123393                 -9.0212703513
           2       16                  8.3047696391                  8.2854840999
           2       17                 45.8428042125                 45.8427461223
           3       18               -272.9322507263               -272.9201921991
           3       19               1665.9089384428               1665.9689460231 ***
           3       20               2095.2037268945               2095.2740317228 ***
           3       21               3047.3679718515               3047.0126722257 ***
           3       22               3234.6000205573               3231.5687072350 ***
           3       23               2428.4660356492               2422.2375592442 ***
           3       24                896.7802862158                893.3913916184 ***
           3       25               3128.2108268826               3108.2674940926 ***
           3       26                 71.8616615187                 71.1575836879 ***
           3       27                 15.4122562036                 15.4122564509
           3       28                101.7989356251                101.7989355629
           3       29                121.1064459338                121.1064460850
           3       30                271.5759585347                271.5759823152
           3       31                159.3966255928                159.3962927971
           3       32                153.6473243407                153.6504704040
           3       33                 50.7421815376                 50.7421815945
           3       34                 88.5010368311                 88.5010331057
           3       35                 82.9872957917                 82.9873669217
           3       36                 36.7418806245                 36.7419113217
           3       37                 85.4133898762                 85.4133899074
           3       38                115.1018427582                115.1018451832
           3       39                142.1023296234                142.1023296272
 * Note: Onsite integrals marked "***" above are less accurate than
 * onsite_accuracy_threshold =    0.03000 eV. Usually, this is harmless.
 * When in doubt, tighten the "radial" and/or "radial_multiplier" flags to check.

  Preparing densities etc. for the partition functions (integrals / Hartree potential).

  Preparations completed.
  max(cpu_time)          :      0.481 s.
  Wall clock time (cpu1) :      0.479 s.
------------------------------------------------------------
  After prepare_scf [GB]:   1039.13

  Initializing index lists of integration centers etc. from given atomic structure:
  Mapping all atomic coordinates to central unit cell.

  Initializing the k-points
  Using symmetry for reducing the k-points
  | k-points reduced from:       64 to       34
  | Number of k-points                             :        34
  The eigenvectors in the calculations are COMPLEX.
  | K-points in task   0:         1
  | K-points in task   1:         2
  | K-points in task   2:         2
  | K-points in task   3:         1
  | K-points in task   4:         1
  | K-points in task   5:         1
  | K-points in task   6:         1
  | K-points in task   7:         1
  | K-points in task   8:         1
  | K-points in task   9:         1
  | K-points in task  10:         1
  | K-points in task  11:         1
  | K-points in task  12:         1
  | K-points in task  13:         1
  | K-points in task  14:         1
  | K-points in task  15:         1
  | K-points in task  16:         1
  | K-points in task  17:         1
  | K-points in task  18:         1
  | K-points in task  19:         1
  | K-points in task  20:         1
  | K-points in task  21:         1
  | K-points in task  22:         1
  | K-points in task  23:         1
  | K-points in task  24:         1
  | K-points in task  25:         1
  | K-points in task  26:         1
  | K-points in task  27:         1
  | K-points in task  28:         1
  | K-points in task  29:         1
  | K-points in task  30:         1
  | K-points in task  31:         1
  | Number of basis functions in the Hamiltonian integrals :      5336
  | Number of basis functions in a single unit cell        :       528
  | Number of centers in hartree potential         :      1524
  | Number of centers in hartree multipole         :       766
  | Number of centers in electron density summation:       625
  | Number of centers in basis integrals           :       653
  | Number of centers in integrals                 :       318
  | Number of centers in hamiltonian               :       743
  | Consuming         36 KiB for k_phase.
  | Number of super-cells (origin) [n_cells]                     :         405
  | Number of super-cells (after PM_index) [n_cells]             :          68
  | Number of super-cells in hamiltonian [n_cells_in_hamiltonian]:          68
  | Size of matrix packed + index [n_hamiltonian_matrix_size] :      704589
  After initialize_bc_dependent_lists [GB]:   1039.13

------------------------------------------------------------
          Begin self-consistency loop: Initialization.

          Date     :  20251013, Time     :  195134.054
------------------------------------------------------------
  Available memory per node after initialize_hartree_non_periodic_ewald [GB]:   1039.13
  | Estimated reciprocal-space cutoff momentum G_max:         1.98229608 bohr^-1 .
  | Reciprocal lattice points for long-range Hartree potential:     782
  Available memory per node after initialize_recip_hartree_potential [GB]:   1039.13
  Available memory per node after initialize_scalapack [GB]:   1039.13
  Available memory per node after aims_elsi_init_scf [GB]:   1039.13
  Available memory per node after initialize_fixed_grids [GB]:   1039.13
  Partitioning the integration grid into batches with parallel hashing+maxmin method.
  | Number of batches:     2005
  | Maximal batch size:     198
  | Minimal batch size:       4
  | Average batch size:      83.295
  | Standard deviation of batch sizes:      27.113

  Integration load balanced across    32 MPI tasks.
  Work distribution over tasks is as follows:
  Task     0 has       5221 integration points.
  Task     1 has       5212 integration points.
  Task     2 has       5216 integration points.
  Task     3 has       5194 integration points.
  Task     4 has       5187 integration points.
  Task     5 has       5230 integration points.
  Task     6 has       5243 integration points.
  Task     7 has       5217 integration points.
  Task     8 has       5220 integration points.
  Task     9 has       5209 integration points.
  Task    10 has       5224 integration points.
  Task    11 has       5247 integration points.
  Task    12 has       5187 integration points.
  Task    13 has       5237 integration points.
  Task    14 has       5225 integration points.
  Task    15 has       5211 integration points.
  Task    16 has       5197 integration points.
  Task    17 has       5251 integration points.
  Task    18 has       5214 integration points.
  Task    19 has       5231 integration points.
  Task    20 has       5230 integration points.
  Task    21 has       5242 integration points.
  Task    22 has       5219 integration points.
  Task    23 has       5188 integration points.
  Task    24 has       5244 integration points.
  Task    25 has       5247 integration points.
  Task    26 has       5201 integration points.
  Task    27 has       5184 integration points.
  Task    28 has       5214 integration points.
  Task    29 has       5235 integration points.
  Task    30 has       5240 integration points.
  Task    31 has       5189 integration points.
  Available memory per node after partition_grid [GB]:   1039.13
  Initializing partition tables, free-atom densities, potentials, etc. across the integration grid (initialize_grid_storage).
  | initialize_grid_storage: Actual outermost partition radius vs. multipole_radius_free
  | (-- VB: in principle, multipole_radius_free should be larger, hence this output)
  | Species        1: Confinement radius =              4.999999999999999 AA, multipole_radius_free =              5.002391649902235 AA.
  | Species        1: outer_partition_radius set to              5.002391649902235 AA .
  | Species        2: Confinement radius =              4.999999999999999 AA, multipole_radius_free =              5.048384829883283 AA.
  | Species        2: outer_partition_radius set to              5.048384829883283 AA .
  | Species        3: Confinement radius =              6.000000000000000 AA, multipole_radius_free =              6.064445521808699 AA.
  | Species        3: outer_partition_radius set to              6.064445521808699 AA .
  | The sparse table of interatomic distances needs       2064.65 kbyte instead of      3411.27 kbyte of memory.
  | Net number of integration points:   167006
  | of which are non-zero points    :   138187
  | Numerical average free-atom electrostatic potential    :     -5.20601834 eV
  Available memory per node after initialize_grid_storage_p1 [GB]:   1039.14
  Renormalizing the initial density to the exact electron count on the 3D integration grid.
  | Initial density: Formal number of electrons (from input files) :     304.0000000000
  | Integrated number of electrons on 3D grid     :     303.9993177053
  | Charge integration error                      :      -0.0006822947
  | Normalization factor for density and gradient :       1.0000022444
  Renormalizing the free-atom superposition density to the exact electron count on the 3D integration grid.
  | Formal number of electrons (from input files) :     303.9000000000
  | Integrated number of electrons on 3D grid     :     303.9993177053
  | Charge integration error                      :      -0.0006822947
  | Normalization factor for density and gradient :       1.0000022444
  Obtaining max. number of non-zero basis functions in each batch (get_n_compute_maxes).
  | Maximal number of non-zero basis functions:      845 in task     0
  | Maximal number of non-zero basis functions:      809 in task     1
  | Maximal number of non-zero basis functions:      780 in task     2
  | Maximal number of non-zero basis functions:      787 in task     3
  | Maximal number of non-zero basis functions:      777 in task     4
  | Maximal number of non-zero basis functions:      817 in task     5
  | Maximal number of non-zero basis functions:      797 in task     6
  | Maximal number of non-zero basis functions:      815 in task     7
  | Maximal number of non-zero basis functions:      823 in task     8
  | Maximal number of non-zero basis functions:      780 in task     9
  | Maximal number of non-zero basis functions:      788 in task    10
  | Maximal number of non-zero basis functions:      788 in task    11
  | Maximal number of non-zero basis functions:      819 in task    12
  | Maximal number of non-zero basis functions:      828 in task    13
  | Maximal number of non-zero basis functions:      778 in task    14
  | Maximal number of non-zero basis functions:      761 in task    15
  | Maximal number of non-zero basis functions:      781 in task    16
  | Maximal number of non-zero basis functions:      798 in task    17
  | Maximal number of non-zero basis functions:      853 in task    18
  | Maximal number of non-zero basis functions:      819 in task    19
  | Maximal number of non-zero basis functions:      785 in task    20
  | Maximal number of non-zero basis functions:      778 in task    21
  | Maximal number of non-zero basis functions:      839 in task    22
  | Maximal number of non-zero basis functions:      777 in task    23
  | Maximal number of non-zero basis functions:      760 in task    24
  | Maximal number of non-zero basis functions:      811 in task    25
  | Maximal number of non-zero basis functions:      840 in task    26
  | Maximal number of non-zero basis functions:      788 in task    27
  | Maximal number of non-zero basis functions:      789 in task    28
  | Maximal number of non-zero basis functions:      852 in task    29
  | Maximal number of non-zero basis functions:      772 in task    30
  | Maximal number of non-zero basis functions:      789 in task    31
  Available memory per node after get_n_compute_maxes_p1 [GB]:   1039.13
  Initialize hartree_potential_storage
  Max. number of atoms included in rho_multipole:           24

  Evaluating partitioned Hartree potential by multipole expansion.
  | Original multipole sum: apparent total charge =  -0.682086E-13
  | Sum of charges compensated after spline to logarithmic grids =   0.000000E+00
  | Analytical far-field extrapolation by fixed multipoles:
  | Hartree multipole sum: apparent total charge =   0.000000E+00
  Summing up the Hartree potential.
  | Ewald reciprocal-space coefficients, myid =     0 : cpu      0.000 s, wall      0.000 s.
  | Ewald reciprocal-space coefficients, myid =     1 : cpu      0.000 s, wall      0.000 s.
  | Ewald reciprocal-space coefficients, myid =     2 : cpu      0.000 s, wall      0.000 s.
  | Ewald reciprocal-space coefficients, myid =     3 : cpu      0.000 s, wall      0.000 s.
  | Ewald reciprocal-space coefficients, myid =     4 : cpu      0.000 s, wall      0.000 s.
  | Ewald reciprocal-space coefficients, myid =     5 : cpu      0.000 s, wall      0.000 s.
  | Ewald reciprocal-space coefficients, myid =     6 : cpu      0.000 s, wall      0.000 s.
  | Ewald reciprocal-space coefficients, myid =     7 : cpu      0.000 s, wall      0.000 s.
  | Ewald reciprocal-space coefficients, myid =     8 : cpu      0.000 s, wall      0.000 s.
  | Ewald reciprocal-space coefficients, myid =     9 : cpu      0.000 s, wall      0.000 s.
  | Ewald reciprocal-space coefficients, myid =    10 : cpu      0.000 s, wall      0.000 s.
  | Ewald reciprocal-space coefficients, myid =    11 : cpu      0.000 s, wall      0.000 s.
  | Ewald reciprocal-space coefficients, myid =    12 : cpu      0.000 s, wall      0.000 s.
  | Ewald reciprocal-space coefficients, myid =    13 : cpu      0.000 s, wall      0.000 s.
  | Ewald reciprocal-space coefficients, myid =    14 : cpu      0.000 s, wall      0.000 s.
  | Ewald reciprocal-space coefficients, myid =    15 : cpu      0.000 s, wall      0.000 s.
  | Ewald reciprocal-space coefficients, myid =    16 : cpu      0.000 s, wall      0.000 s.
  | Ewald reciprocal-space coefficients, myid =    17 : cpu      0.000 s, wall      0.000 s.
  | Ewald reciprocal-space coefficients, myid =    18 : cpu      0.000 s, wall      0.000 s.
  | Ewald reciprocal-space coefficients, myid =    19 : cpu      0.000 s, wall      0.000 s.
  | Ewald reciprocal-space coefficients, myid =    20 : cpu      0.000 s, wall      0.000 s.
  | Ewald reciprocal-space coefficients, myid =    21 : cpu      0.000 s, wall      0.000 s.
  | Ewald reciprocal-space coefficients, myid =    22 : cpu      0.000 s, wall      0.000 s.
  | Ewald reciprocal-space coefficients, myid =    23 : cpu      0.000 s, wall      0.000 s.
  | Ewald reciprocal-space coefficients, myid =    24 : cpu      0.000 s, wall      0.000 s.
  | Ewald reciprocal-space coefficients, myid =    25 : cpu      0.000 s, wall      0.000 s.
  | Ewald reciprocal-space coefficients, myid =    26 : cpu      0.000 s, wall      0.000 s.
  | Ewald reciprocal-space coefficients, myid =    27 : cpu      0.000 s, wall      0.000 s.
  | Ewald reciprocal-space coefficients, myid =    28 : cpu      0.000 s, wall      0.000 s.
  | Ewald reciprocal-space coefficients, myid =    29 : cpu      0.000 s, wall      0.000 s.
  | Ewald reciprocal-space coefficients, myid =    30 : cpu      0.000 s, wall      0.000 s.
  | Ewald reciprocal-space coefficients, myid =    31 : cpu      0.000 s, wall      0.000 s.
  Time summed over all CPUs for potential: real work        0.047 s, elapsed        0.048 s
  | RMS charge density error from multipole expansion :   0.364825E-13
  | Average real-space part of the electrostatic potential :      0.00000000 eV

  Allocating        3.932 MB for KS_eigenvector_complex
  Available memory per node after allocate_matrices [GB]:   1039.12
  Available memory per node after init_comm_sparse_local_matrix_scalapack [GB]:   1039.12
  Integrating Hamiltonian matrix: batch-based integration.
  Time summed over all CPUs for integration: real work       31.921 s, elapsed       34.621 s
  Available memory per node after integrate hamiltonian matrix [GB]:   1038.52
  Integrating overlap matrix.
  Time summed over all CPUs for integration: real work        5.452 s, elapsed        6.095 s
  Available memory per node after integrate ovlp matrix [GB]:   1038.26
  Available memory per node after ASI_callbacks invoke [GB]:   1038.26
  Available memory per node after save_overlap_scalapack [GB]:   1038.26

  Updating Kohn-Sham eigenvalues and eigenvectors using ELSI and the (modified) LAPACK eigensolver.
  Singularity check in k-point 32, task 0 (analysis for other k-points/tasks may follow below):
  Overlap matrix is not singular
  | Lowest and highest eigenvalues :  0.1462E-03,  0.8574E+01
  Finished singularity check of overlap matrix
  | Time :     0.084 s
  Starting LAPACK eigensolver
  Finished Cholesky decomposition
  | Time :     0.014 s
  Finished transformation to standard eigenproblem
  | Time :     0.019 s
  Finished solving standard eigenproblem
  | Time :     0.104 s
  Finished back-transformation of eigenvectors
  | Time :     0.007 s

  Obtaining occupation numbers and electronic chemical potential using ELSI.
  | Note that, for insulating systems, the printed 'chemical potential' value is not uniquely defined.
  | It can be anywhere in the energy gap, as long as it correctly separates occupied and unoccupied states.
  | In systems with a gap, the physically relevant chemical potential is the VBM or HOMO.

  | Chemical potential (Fermi level):   -11.19141553 eV
  Available memory per node after advance_KS_solution [GB]:   1037.86
  Writing Kohn-Sham eigenvalues.

  Spin-up eigenvalues:
  K-point:       1 at    0.000000    0.000000    0.000000 (in units of recip. lattice)

  State    Occupation    Eigenvalue [Ha]    Eigenvalue [eV]
      1       1.00000        -179.962418        -4897.02654
      2       1.00000        -179.962418        -4897.02654
      3       1.00000        -179.962362        -4897.02502
      4       1.00000        -179.962362        -4897.02502
      5       1.00000        -179.961278        -4896.99553
      6       1.00000        -179.961230        -4896.99421
      7       1.00000        -179.961229        -4896.99419
      8       1.00000        -179.961226        -4896.99411
      9       1.00000         -19.737961         -537.09723
     10       1.00000         -19.737961         -537.09723
     11       1.00000         -19.737905         -537.09572
     12       1.00000         -19.737905         -537.09572
     13       1.00000         -19.736721         -537.06351
     14       1.00000         -19.736673         -537.06221
     15       1.00000         -19.736673         -537.06218
     16       1.00000         -19.736669         -537.06210
     17       1.00000         -19.035040         -517.96980
     18       1.00000         -19.034665         -517.95960
     19       1.00000         -19.034654         -517.95929
     20       1.00000         -19.034648         -517.95911
     21       1.00000         -19.034539         -517.95615
     22       1.00000         -19.034539         -517.95615
     23       1.00000         -19.034539         -517.95615
     24       1.00000         -19.034539         -517.95615
     25       1.00000         -19.034538         -517.95614
     26       1.00000         -19.034538         -517.95614
     27       1.00000         -19.034538         -517.95614
     28       1.00000         -19.034538         -517.95614
     29       1.00000         -19.001857         -517.06683
     30       1.00000         -19.001837         -517.06629
     31       1.00000         -19.001836         -517.06627
     32       1.00000         -19.001836         -517.06627
     33       1.00000         -16.328136         -444.31120
     34       1.00000         -16.328136         -444.31120
     35       1.00000         -16.328081         -444.30968
     36       1.00000         -16.328081         -444.30968
     37       1.00000         -16.327815         -444.30246
     38       1.00000         -16.327815         -444.30246
     39       1.00000         -16.327809         -444.30230
     40       1.00000         -16.327809         -444.30230
     41       1.00000         -16.327760         -444.30096
     42       1.00000         -16.327760         -444.30096
     43       1.00000         -16.327754         -444.30079
     44       1.00000         -16.327754         -444.30078
     45       1.00000         -16.326961         -444.27921
     46       1.00000         -16.326913         -444.27791
     47       1.00000         -16.326912         -444.27789
     48       1.00000         -16.326909         -444.27780
     49       1.00000         -16.326652         -444.27080
     50       1.00000         -16.326604         -444.26950
     51       1.00000         -16.326603         -444.26948
     52       1.00000         -16.326600         -444.26939
     53       1.00000         -16.326488         -444.26633
     54       1.00000         -16.326439         -444.26501
     55       1.00000         -16.326438         -444.26499
     56       1.00000         -16.326435         -444.26491
     57       1.00000          -2.309071          -62.83301
     58       1.00000          -2.309004          -62.83119
     59       1.00000          -2.307276          -62.78418
     60       1.00000          -2.307216          -62.78254
     61       1.00000          -2.306209          -62.75514
     62       1.00000          -2.306169          -62.75406
     63       1.00000          -2.304442          -62.70705
     64       1.00000          -2.304413          -62.70626
     65       1.00000          -1.463864          -39.83375
     66       1.00000          -1.463755          -39.83079
     67       1.00000          -1.462146          -39.78701
     68       1.00000          -1.462076          -39.78511
     69       1.00000          -1.448915          -39.42698
     70       1.00000          -1.448582          -39.41792
     71       1.00000          -1.446439          -39.35962
     72       1.00000          -1.446155          -39.35188
     73       1.00000          -1.441359          -39.22138
     74       1.00000          -1.441264          -39.21880
     75       1.00000          -1.441215          -39.21746
     76       1.00000          -1.441047          -39.21289
     77       1.00000          -1.439196          -39.16250
     78       1.00000          -1.439126          -39.16062
     79       1.00000          -1.439113          -39.16027
     80       1.00000          -1.438978          -39.15657
     81       1.00000          -1.438874          -39.15376
     82       1.00000          -1.438681          -39.14851
     83       1.00000          -1.437880          -39.12669
     84       1.00000          -1.437834          -39.12546
     85       1.00000          -1.433100          -38.99665
     86       1.00000          -1.432973          -38.99318
     87       1.00000          -1.431901          -38.96402
     88       1.00000          -1.431818          -38.96175
     89       1.00000          -1.057904          -28.78703
     90       1.00000          -1.049240          -28.55127
     91       1.00000          -1.034032          -28.13745
     92       1.00000          -1.028095          -27.97589
     93       1.00000          -1.026919          -27.94389
     94       1.00000          -1.025689          -27.91042
     95       1.00000          -1.025207          -27.89729
     96       1.00000          -1.022824          -27.83247
     97       1.00000          -1.016008          -27.64699
     98       1.00000          -1.014537          -27.60697
     99       1.00000          -1.006771          -27.39564
    100       1.00000          -1.005257          -27.35445
    101       1.00000          -0.982383          -26.73200
    102       1.00000          -0.981375          -26.70456
    103       1.00000          -0.979400          -26.65083
    104       1.00000          -0.979150          -26.64403
    105       1.00000          -0.574789          -15.64080
    106       1.00000          -0.572648          -15.58253
    107       1.00000          -0.544067          -14.80482
    108       1.00000          -0.542236          -14.75500
    109       1.00000          -0.541530          -14.73577
    110       1.00000          -0.541300          -14.72953
    111       1.00000          -0.538463          -14.65234
    112       1.00000          -0.533919          -14.52868
    113       1.00000          -0.533136          -14.50736
    114       1.00000          -0.529850          -14.41794
    115       1.00000          -0.526914          -14.33807
    116       1.00000          -0.514995          -14.01372
    117       1.00000          -0.514900          -14.01114
    118       1.00000          -0.514008          -13.98688
    119       1.00000          -0.513871          -13.98315
    120       1.00000          -0.509185          -13.85564
    121       1.00000          -0.504586          -13.73047
    122       1.00000          -0.502698          -13.67910
    123       1.00000          -0.502278          -13.66769
    124       1.00000          -0.489852          -13.32954
    125       1.00000          -0.489170          -13.31100
    126       1.00000          -0.488743          -13.29936
    127       1.00000          -0.484944          -13.19601
    128       1.00000          -0.479434          -13.04608
    129       1.00000          -0.477149          -12.98389
    130       1.00000          -0.475901          -12.94993
    131       1.00000          -0.466983          -12.70725
    132       1.00000          -0.465132          -12.65687
    133       1.00000          -0.464863          -12.64955
    134       1.00000          -0.462121          -12.57494
    135       1.00000          -0.460182          -12.52220
    136       1.00000          -0.456858          -12.43174
    137       1.00000          -0.451713          -12.29174
    138       1.00000          -0.451270          -12.27968
    139       1.00000          -0.450634          -12.26238
    140       1.00000          -0.446274          -12.14373
[...]
    178       0.00000          -0.138589           -3.77119
    179       0.00000          -0.136355           -3.71041
    180       0.00000          -0.128933           -3.50846
    181       0.00000          -0.094092           -2.56037
    182       0.00000          -0.093546           -2.54552
    183       0.00000          -0.082776           -2.25245
    184       0.00000          -0.077784           -2.11662
    185       0.00000          -0.077202           -2.10078
    186       0.00000          -0.069545           -1.89243
    187       0.00000          -0.068076           -1.85244
    188       0.00000          -0.067675           -1.84153
    189       0.00000          -0.048290           -1.31403
    190       0.00000          -0.046414           -1.26300
    191       0.00000          -0.033202           -0.90348
    192       0.00000          -0.032829           -0.89332
    193       0.00000          -0.032714           -0.89019
    194       0.00000          -0.024036           -0.65405
    195       0.00000           0.059810            1.62753
    196       0.00000           0.061038            1.66092
    197       0.00000           0.068241            1.85694
    198       0.00000           0.112604            3.06412
    199       0.00000           0.120015            3.26577
    200       0.00000           0.128178            3.48789
    201       0.00000           0.133986            3.64595
    202       0.00000           0.139880            3.80633
    203       0.00000           0.144166            3.92296
    204       0.00000           0.156587            4.26095
    205       0.00000           0.164457            4.47511
    206       0.00000           0.185395            5.04486
    207       0.00000           0.207378            5.64304
    208       0.00000           0.227539            6.19166
    209       0.00000           0.227839            6.19980
    210       0.00000           0.234523            6.38169
    211       0.00000           0.251726            6.84981
    212       0.00000           0.253512            6.89842
    213       0.00000           0.256001            6.96615
    214       0.00000           0.274362            7.46578
    215       0.00000           0.275463            7.49573
    216       0.00000           0.277246            7.54426
    217       0.00000           0.281577            7.66209
    218       0.00000           0.287982            7.83639
    219       0.00000           0.298703            8.12813
    220       0.00000           0.299649            8.15386
    221       0.00000           0.320509            8.72150
    222       0.00000           0.333143            9.06528
    223       0.00000           0.342804            9.32817
    224       0.00000           0.344442            9.37274
    225       0.00000           0.355786            9.68144
    226       0.00000           0.369412           10.05221
    227       0.00000           0.371298           10.10354
    228       0.00000           0.378195           10.29121
    229       0.00000           0.393210           10.69980
    230       0.00000           0.395599           10.76480
    231       0.00000           0.409267           11.13672
    232       0.00000           0.411351           11.19342
    233       0.00000           0.417109           11.35011
    234       0.00000           0.419451           11.41384
    235       0.00000           0.421814           11.47814
    236       0.00000           0.423117           11.51361
    237       0.00000           0.424994           11.56469
    238       0.00000           0.430152           11.70502
    239       0.00000           0.453555           12.34185
    240       0.00000           0.470962           12.81553
    241       0.00000           0.474587           12.91417
    242       0.00000           0.494777           13.46357
    243       0.00000           0.507000           13.79616
    244       0.00000           0.510643           13.89530

  Current spin moment of the entire structure :
  | N = N_up - N_down (sum over all k points):         0.00000
  | S (sum over all k points)                :         0.00000

  What follows are estimated values for band gap, HOMO, LUMO, etc.
  | They are estimated on a discrete k-point grid and not necessarily exact.
  | For converged numbers, create a DOS and/or band structure plot on a denser k-grid.

  Highest occupied state (VBM) at     -7.95191036 eV (relative to internal zero)
  | Occupation number:      0.72883406
  | K-point:       2 at    0.000000    0.125000    0.000000 (in units of recip. lattice)
  | Spin channel:        2

  Lowest unoccupied state (CBM) at    -7.92467684 eV (relative to internal zero)
  | Occupation number:      0.43605070
  | K-point:       1 at    0.000000    0.000000    0.000000 (in units of recip. lattice)
  | Spin channel:        1

  ESTIMATED overall HOMO-LUMO gap:      0.02723352 eV between HOMO at k-point 2 and LUMO at k-point 1
  | This appears to be an indirect band gap.
  | Smallest direct gap :      0.08889594 eV for k_point 1 at    0.000000    0.000000    0.000000 (in units of recip. lattice)
  | Direct gap HOMO spin channel :     2
  | Direct gap LUMO spin channel :     1
  However, this system has fractional occupation numbers. Since we use a finite k-point grid,
  this material is metallic within the approximate finite broadening function (occupation_type)
  applied to determine the occupation numbers.

  Total energy components:
  | Sum of eigenvalues            :       -4747.12183789 Ha     -129175.75759907 eV
  | XC energy correction          :        -474.13392233 Ha      -12901.84046497 eV
  | XC potential correction       :         612.99839152 Ha       16680.53492951 eV
  | Free-atom electrostatic energy:       -3422.47562659 Ha      -93130.30021688 eV
  | Hartree energy correction     :          -4.90531054 Ha        -133.48029116 eV
  | Entropy correction            :          -0.00007550 Ha          -0.00205436 eV
  | ---------------------------
  | Total energy                  :       -8035.63830582 Ha     -218660.84364257 eV
  | Total energy, T -> 0          :       -8035.63838132 Ha     -218660.84569693 eV  <-- do not rely on this value for anything but (periodic) metals
  | Electronic free energy        :       -8035.63845681 Ha     -218660.84775129 eV

  Derived energy quantities:
  | Kinetic energy                :        8129.37925433 Ha      221211.66463598 eV
  | Electrostatic energy          :      -15690.88363782 Ha     -426970.66781359 eV
  | Energy correction for multipole
  | error in Hartree potential    :           0.06501391 Ha           1.76911848 eV
  | Sum of eigenvalues per atom                           :       -5382.32323329 eV
  | Total energy (T->0) per atom                          :       -9110.86857071 eV  <-- do not rely on this value for anything but (periodic) metals
  | Electronic free energy per atom                       :       -9110.86865630 eV
  End evaluation of scaled ZORA corrections.
  | Time for scaled ZORA corrections            :        2.109 s           2.108 s
------------------------------------------------------------

  Energy and forces in a compact form:
  | Total energy uncorrected      :         -0.218660843642574E+06 eV
  | Total energy corrected        :         -0.218660845696934E+06 eV  <-- do not rely on this value for anything but (periodic) metals
  | Electronic free energy        :         -0.218660847751295E+06 eV

  ------------------------------------ 
  Start decomposition of the XC Energy 
  ------------------------------------ 
  X and C from original XC functional choice 
  Hartree-Fock Energy :          0.000000000 Ha              0.000000000 eV
  X Energy            :       -462.178152332 Ha         -12576.507410614 eV
  C Energy            :        -11.955769996 Ha           -325.333054358 eV
  XC Energy w/o HF    :       -474.133922328 Ha         -12901.840464971 eV
  Total XC Energy     :       -474.133922328 Ha         -12901.840464971 eV
  ------------------------------------ 
  LDA X and C from self-consistent density 
  X Energy LDA        :       -428.907592924 Ha         -11671.169426019 eV
  C Energy LDA        :        -23.449341540 Ha           -638.089048923 eV
  ------------------------------------ 
  End decomposition of the XC Energy 
  ------------------------------------ 

------------------------------------------------------------

  ------------------------------------------------------------
                   Starting Mulliken Analysis
  ------------------------------------------------------------

  Performing Mulliken charge analysis on all atoms.
  Full analysis will be written to separate file 'Mulliken.out'.
  Summary of the per-atom charge analysis:
  |
  |  atom       electrons          charge             l=0             l=1             l=2             l=3             l=4
  |     1        8.477664       -0.477664        3.883064        4.583629        0.010971
  |     2        8.659295       -0.659295        3.855789        4.793037        0.010469
  |     3       20.841904        1.158096        6.139134       12.451764        2.130765        0.120241
  |     4       20.937130        1.062870        6.057453       12.510264        2.225836        0.143577
  |     5        8.659296       -0.659296        3.855788        4.793040        0.010469
  |     6        8.583534       -0.583534        3.838341        4.734581        0.010612
  |     7        8.617134       -0.617134        3.839186        4.767316        0.010633
  |     8        8.666313       -0.666313        3.855118        4.800675        0.010521
  |     9       20.775963        1.224037        6.105029       12.428586        2.121609        0.120739
  |    10       21.255265        0.744735        6.242064       12.633002        2.240200        0.139998
  |    11        8.666313       -0.666313        3.855119        4.800674        0.010521
  |    12        8.483076       -0.483076        3.884916        4.587259        0.010901
  |    13        8.475702       -0.475702        3.880725        4.583989        0.010987
  |    14        8.659295       -0.659295        3.855789        4.793037        0.010469
  |    15       21.067274        0.932726        6.319387       12.539840        2.095018        0.113029
  |    16       20.937130        1.062870        6.057453       12.510264        2.225836        0.143577
  |    17        8.659296       -0.659296        3.855788        4.793040        0.010469
  |    18        8.621496       -0.621496        3.834070        4.776794        0.010631
  |    19        6.930807        1.069193        3.559051        4.057540       -0.694543        0.007897        0.000862
  |    20        8.666313       -0.666313        3.855118        4.800675        0.010521
  |    21       20.860582        1.139418        6.139904       12.457216        2.142951        0.120511
  |    22       21.255265        0.744735        6.242064       12.633002        2.240200        0.139998
  |    23        8.666313       -0.666313        3.855119        4.800674        0.010521
  |    24        8.477638       -0.477638        3.878582        4.588016        0.011041
  |
  | Total      303.900000        0.100000
 
  Summary of the per-atom spin analysis:
  |
  |  atom   spin      l=0         l=1         l=2         l=3         l=4
  |     1    0.000000    0.000000    0.000000   -0.000000
  |     2   -0.000000    0.000000   -0.000000   -0.000000
  |     3    0.000000    0.000000    0.000000    0.000000   -0.000000
  |     4    0.000000    0.000000    0.000000    0.000000   -0.000000
  |     5   -0.000000    0.000000   -0.000000   -0.000000
  |     6    0.000000   -0.000000    0.000000   -0.000000
  |     7    0.000000    0.000000    0.000000   -0.000000
  |     8    0.000000    0.000000    0.000000    0.000000
  |     9    0.000000    0.000000    0.000000    0.000000    0.000000
  |    10   -0.000000   -0.000000   -0.000000   -0.000000   -0.000000
  |    11    0.000000    0.000000    0.000000    0.000000
  |    12    0.000000    0.000000    0.000000    0.000000
  |    13    0.000000   -0.000000    0.000000    0.000000
  |    14    0.000000    0.000000   -0.000000   -0.000000
  |    15   -0.000000   -0.000000   -0.000000   -0.000000   -0.000000
  |    16    0.000000    0.000000    0.000000    0.000000   -0.000000
  |    17    0.000000    0.000000   -0.000000   -0.000000
  |    18    0.000000    0.000000    0.000000   -0.000000
  |    19    0.000000    0.000000   -0.000000   -0.000000    0.000000   -0.000000
  |    20    0.000000    0.000000   -0.000000    0.000000
  |    21   -0.000000   -0.000000    0.000000   -0.000000    0.000000
  |    22   -0.000000   -0.000000   -0.000000   -0.000000   -0.000000
  |    23    0.000000    0.000000   -0.000000   -0.000000
  |    24   -0.000000    0.000000   -0.000000    0.000000
  |
  | Total    0.000000
 
  Writing Mulliken decomposition to disk ...

  Mulliken analysis                                       :  max(cpu_time)    wall_clock(cpu1)
  | Time for Mulliken analysis                            :          3.697               3.700
  | Total time for Mulliken analysis                      :          3.697               3.700
------------------------------------------------------------

------------------------------------------------------------------------------
  Final output of selected total energy values:

  The following output summarizes some interesting total energy values
  at the end of a run (AFTER all relaxation, molecular dynamics, etc.).

  | Total energy of the DFT / Hartree-Fock s.c.f. calculation      :        -218660.843642574 eV
  | Final zero-broadening corrected energy (caution - metals only) :        -218660.845696934 eV
  | For reference only, the value of 1 Hartree used in FHI-aims is :             27.211384500 eV
  | For reference only, the overall average (free atom contribution
  | + realspace contribution) of the electrostatic potential after
  | s.c.f. convergence is                                          :             -5.022025952 eV

  Before relying on these values, please be sure to understand exactly which
  total energy value is referred to by a given number. Different objects may
  all carry the same name 'total energy'. Definitions:

  Total energy of the DFT / Hartree-Fock s.c.f. calculation:
  | Note that this energy does not include ANY quantities calculated after the
  | s.c.f. cycle, in particular not ANY RPA, MP2, etc. many-body perturbation terms.
  | Scalar relativistic effects have been included in the 'scaled ZORA' approximation.

  Final zero-broadening corrected energy:
  | For metallic systems only, a broadening of the occupation numbers at the Fermi
  | level can be extrapolated back to zero broadening by an electron-gas inspired
  | formula. For all systems that are not real metals, this value can be
  | meaningless and should be avoided.

------------------------------------------------------------------------------
  Methods described in the following list of references were used in this FHI-aims run.
  If you publish the results, please make sure to cite these reference if they apply.
  FHI-aims is an academic code, and for our developers (often, Ph.D. students
  and postdocs), scientific credit in the community is essential.
  Thank you for helping us!

  For any use of FHI-aims, please cite:

    Volker Blum, Ralf Gehrke, Felix Hanke, Paula Havu, Ville Havu,
    Xinguo Ren, Karsten Reuter, and Matthias Scheffler
    'Ab initio molecular simulations with numeric atom-centered orbitals'
    Computer Physics Communications 180, 2175-2196 (2009)
    http://doi.org/10.1016/j.cpc.2009.06.022


  The provided symmetry information was generated with SPGlib:

    Atsushi Togo, Yusuke Seto, Dimitar Pashov
    SPGlib 1.7.3 obtained from http://spglib.sourceforge.net
    Licence: New BSD license
    Copyright (C) 2008 Atsushi Togo


  The ELSI infrastructure was used in your run to solve the Kohn-Sham electronic structure.
  Please check out https://wordpress.elsi-interchange.org to learn more.
  If scalability is important for your project, please acknowledge ELSI by citing:

    V. W-z. Yu, F. Corsetti, A. Garcia, W. P. Huhn, M. Jacquelin, W. Jia,
    B. Lange, L. Lin, J. Lu, W. Mi, A. Seifitokaldani, A. Vazquez-Mayagoitia,
    C. Yang, H. Yang, and V. Blum
    'ELSI: A unified software interface for Kohn-Sham electronic structure solvers'
    Computer Physics Communications 222, 267-285 (2018).
    http://doi.org/10.1016/j.cpc.2017.09.007


  For the real-space grid partitioning and parallelization used in this calculation, please cite:

    Ville Havu, Volker Blum, Paula Havu, and Matthias Scheffler,
    'Efficient O(N) integration for all-electron electronic structure calculation'
    'using numerically tabulated basis functions'
    Journal of Computational Physics 228, 8367-8379 (2009).
    http://doi.org/10.1016/j.jcp.2009.08.008

  Of course, there are many other important community references, e.g., those cited in the
  above references. Our list is limited to references that describe implementations in the
  FHI-aims code. The reason is purely practical (length of this list) - please credit others as well.

------------------------------------------------------------
          Leaving FHI-aims.
          Date     :  20251013, Time     :  195421.535

          Computational steps:
          | Number of self-consistency cycles          :           39
          | Number of SCF (re)initializations          :            1

          Detailed time accounting                     :  max(cpu_time)    wall_clock(cpu1)
          | Total time                                  :      168.010 s         168.042 s
          | Preparation time                            :        0.481 s           0.479 s
          | Boundary condition initalization            :        0.038 s           0.038 s
          | Grid partitioning                           :        0.121 s           0.122 s
          | Preloading free-atom quantities on grid     :        0.246 s           0.247 s
          | Free-atom superposition energy              :        0.029 s           0.029 s
          | Total time for integrations                 :       43.748 s          43.747 s
          | Total time for solution of K.-S. equations  :       21.360 s          21.385 s
          | Total time for density update               :       46.045 s          46.047 s
          | Total time for mixing & preconditioning     :       45.276 s          45.276 s
          | Total time for Hartree multipole update     :        0.100 s           0.099 s
          | Total time for Hartree multipole sum        :        4.428 s           4.431 s
          | Total time for total energy evaluation      :        0.018 s           0.022 s
          | Total time for scaled ZORA corrections      :        2.109 s           2.108 s
          | Total time for Mulliken analysis            :        3.697 s           3.700 s

          Partial memory accounting:
          | Residual value for overall tracked memory usage across tasks:     0.000000 MB (should be 0.000000 MB)
          | Peak values for overall tracked memory usage:
          |   Minimum:       52.606 MB (on task 24 after allocating zora_vector2)
          |   Maximum:       58.348 MB (on task  1 after allocating zora_vector2)
          |   Average:       54.360 MB
          | Largest tracked array allocation:
          |   Minimum:       10.751 MB (hamiltonian on task  0)
          |   Maximum:       10.751 MB (hamiltonian on task  0)
          |   Average:       10.751 MB
          Note:  These values currently only include a subset of arrays which are explicitly tracked.
          The "true" memory usage will be greater.

          Have a nice day.
------------------------------------------------------------
