------------------------------------------------------------
          Invoking FHI-aims ...

          When using FHI-aims, please cite the following reference:

            Volker Blum, Ralf Gehrke, Felix Hanke, Paula Havu,
            Ville Havu, Xinguo Ren, Karsten Reuter, and Matthias Scheffler,
            'Ab Initio Molecular Simulations with Numeric Atom-Centered Orbitals',
            Computer Physics Communications 180, 2175-2196 (2009)

          In addition, many other developments in FHI-aims are likely important for
          your particular application. If so, please cite them. A partial list of references
          is written at the end of this file. Thank you for giving credit to the authors
          of these developments.

          For general information about FHI-aims please find us at

            https://fhi-aims.org

          Online tutorials can be found at

            https://fhi-aims-club.gitlab.io/tutorials/tutorials-overview/

          For any questions about FHI-aims, please visit our slack channel at

            https://fhi-aims.slack.com

          and our main development and support site at

            https://aims-git.rz-berlin.mpg.de .

          The latter site, in particular, has a wiki to collect information, as well
          as an issue tracker to log discussions, suggest improvements, and report issues
          or bugs. https://aims-git.rz-berlin.mpg.de is also the main development site
          of the project and all new and updated code versions can be obtained there.
          Please send an email to aims-coordinators@fhi-berlin.mpg.de and we will add
          you to these sites. They are for you and everyone is welcome there.

------------------------------------------------------------



  Date     :  20240328, Time     :  132832.466
  Time zero on CPU 1             :   0.611510000000000E-01  s.
  Internal wall clock time zero  :           480864512.466  s.

  FHI-aims created a unique identifier for this run for later identification
  aims_uuid : 9FB3A8FC-3855-455D-AAEA-BEFF264245B3

  Build configuration of the current instance of FHI-aims
  -------------------------------------------------------
  FHI-aims version      : 230629
  Commit number         : 2698dae75
  CMake host system     : Linux-6.3.7-060307-generic
  CMake version         : 3.22.1
  Fortran compiler      : /usr/bin/mpif90 (GNU) version 11.3.0
  Fortran compiler flags: -O2 -ffree-line-length-none -fallow-argument-mismatch
  C compiler            : /usr/bin/gcc (GNU) version 11.3.0
  C compiler flags      : -O2
  HIP compiler          :
  HIP compiler flags    :
  HIP GPU arch          :
  Using MPI
  Using ScaLAPACK
  Using LibXC
  Using i-PI
  Using RLSY
  Linking against: /usr/lib/x86_64-linux-gnu/libmkl_intel_lp64.so
                   /usr/lib/x86_64-linux-gnu/libmkl_sequential.so
                   /usr/lib/x86_64-linux-gnu/libmkl_core.so
                   /usr/lib/x86_64-linux-gnu/libmkl_blacs_openmpi_lp64.so
                   /usr/lib/x86_64-linux-gnu/libmkl_scalapack_lp64.so

  Using       24 parallel tasks.
  Task        0 on host RSL-arvutus reporting.
  Task        1 on host RSL-arvutus reporting.
  Task        2 on host RSL-arvutus reporting.
  Task        3 on host RSL-arvutus reporting.
  Task        4 on host RSL-arvutus reporting.
  Task        5 on host RSL-arvutus reporting.
  Task        6 on host RSL-arvutus reporting.
  Task        7 on host RSL-arvutus reporting.
  Task        8 on host RSL-arvutus reporting.
  Task        9 on host RSL-arvutus reporting.
  Task       10 on host RSL-arvutus reporting.
  Task       11 on host RSL-arvutus reporting.
  Task       12 on host RSL-arvutus reporting.
  Task       13 on host RSL-arvutus reporting.
  Task       14 on host RSL-arvutus reporting.
  Task       15 on host RSL-arvutus reporting.
  Task       16 on host RSL-arvutus reporting.
  Task       17 on host RSL-arvutus reporting.
  Task       18 on host RSL-arvutus reporting.
  Task       19 on host RSL-arvutus reporting.
  Task       20 on host RSL-arvutus reporting.
  Task       21 on host RSL-arvutus reporting.
  Task       22 on host RSL-arvutus reporting.
  Task       23 on host RSL-arvutus reporting.

  Obtaining array dimensions for all initial allocations:
  
  -----------------------------------------------------------------------
  Parsing control.in (first pass over file, find array dimensions only).
  The contents of control.in will be repeated verbatim below
  unless switched off by setting 'verbatim_writeout .false.' .
  in the first line of control.in .
  -----------------------------------------------------------------------
  
    xc                HF
    spin              none
    relativistic      atomic_zora scalar
  
    output            Mulliken
  	
    KS_method	    serial
  
    output cube eigenstate 1
    output cube eigenstate 2
    output cube eigenstate 3
    output cube eigenstate 4
    output cube eigenstate 5
  
  
  ################################################################################
  #
  #  FHI-aims code project
  #  Volker Blum, 2017
  #
  #  Suggested "intermediate" defaults for H atom (to be pasted into control.in file)
  #
  ################################################################################
    species        H
  #     global species definitions
      nucleus             1
      mass                1.00794
  #
      l_hartree           6
  #
      cut_pot             4.0  2.0  1.0
      basis_dep_cutoff    1e-4
  #
      radial_base         24 7.0
      radial_multiplier   2
      angular_grids       specified
        division   0.1930   50
        division   0.3175  110
        division   0.4293  194
        division   0.5066  302
        division   0.5626  434
  #      division   0.5922  590
  #      division   0.6227  974
  #      division   0.6868 1202
  #      outer_grid  770
        outer_grid  434
  ################################################################################
  #
  #  Definition of "minimal" basis
  #
  ################################################################################
  #     valence basis states
      valence      1  s   1.
  #     ion occupancy
      ion_occ      1  s   0.5
  ################################################################################
  #
  #  Suggested additional basis functions. For production calculations,
  #  uncomment them one after another (the most important basis functions are
  #  listed first).
  #
  #  Basis constructed for dimers: 0.5 A, 0.7 A, 1.0 A, 1.5 A, 2.5 A
  #
  ################################################################################
  #  "First tier" - improvements: -1014.90 meV to -62.69 meV
       hydro 2 s 2.1
       hydro 2 p 3.5
  #  "Second tier" - improvements: -12.89 meV to -1.83 meV
       hydro 1 s 0.85
  #     hydro 2 p 3.7
  #     hydro 2 s 1.2
    for_aux    hydro 3 d 7
  #  "Third tier" - improvements: -0.25 meV to -0.12 meV
  #     hydro 4 f 11.2
  #     hydro 3 p 4.8
  #     hydro 4 d 9
  #     hydro 3 s 3.2
  
  
  ################################################################################
  #
  #  FHI-aims code project
  #  Volker Blum, 2017
  #
  #  Suggested "intermediate" defaults for O atom (to be pasted into control.in file)
  #
  ################################################################################
    species        O
  #     global species definitions
      nucleus             8
      mass                15.9994
  #
      l_hartree           6
  #
      cut_pot             4.0  2.0  1.0
      basis_dep_cutoff    1e-4
  #
      radial_base         36 7.0
      radial_multiplier   2
       angular_grids specified
        division   0.1817   50
        division   0.3417  110
        division   0.4949  194
        division   0.6251  302
        division   0.8014  434
  #      division   0.8507  590
  #      division   0.8762  770
  #      division   0.9023  974
  #      division   1.2339 1202
  #      outer_grid 974
        outer_grid  434
  ################################################################################
  #
  #  Definition of "minimal" basis
  #
  ################################################################################
  #     valence basis states
      valence      2  s   2.
      valence      2  p   4.
  #     ion occupancy
      ion_occ      2  s   1.
      ion_occ      2  p   3.
  ################################################################################
  #
  #  Suggested additional basis functions. For production calculations,
  #  uncomment them one after another (the most important basis functions are
  #  listed first).
  #
  #  Constructed for dimers: 1.0 A, 1.208 A, 1.5 A, 2.0 A, 3.0 A
  #
  ################################################################################
  #  "First tier" - improvements: -699.05 meV to -159.38 meV
       hydro 2 p 1.8
       hydro 3 d 7.6
       hydro 3 s 6.4
  #  "Second tier" - improvements: -49.91 meV to -5.39 meV
       hydro 4 f 11.6
  #     hydro 3 p 6.2
  #     hydro 3 d 5.6
    for_aux    hydro 5 g 17.6
  #     hydro 1 s 0.75
  #  "Third tier" - improvements: -2.83 meV to -0.50 meV
  #     ionic 2 p auto
  #     hydro 4 f 10.8
  #     hydro 4 d 4.7
  #     hydro 2 s 6.8
  #  "Fourth tier" - improvements: -0.40 meV to -0.12 meV
  #     hydro 3 p 5
  #     hydro 3 s 3.3
  #     hydro 5 g 15.6
  #     hydro 4 f 17.6
  #     hydro 4 d 14
  # Further basis functions - -0.08 meV and below
  #     hydro 3 s 2.1
  #     hydro 4 d 11.6
  #     hydro 3 p 16
  #     hydro 2 s 17.2
  
  -----------------------------------------------------------------------
  Completed first pass over input file control.in .
  -----------------------------------------------------------------------
  
  
  -----------------------------------------------------------------------
  Parsing geometry.in (first pass over file, find array dimensions only).
  The contents of geometry.in will be repeated verbatim below
  unless switched off by setting 'verbatim_writeout .false.' .
  in the first line of geometry.in .
  -----------------------------------------------------------------------
  
  atom      -0.20579314      0.17901400      0.79211421 O
  atom       0.75459169      0.20314483      0.81601579 H
  atom      -0.49379856      0.82384117      1.44387000 H
  
  -----------------------------------------------------------------------
  Completed first pass over input file geometry.in .
  -----------------------------------------------------------------------
  

  Basic array size parameters:
  | Number of species                 :        2
  | Number of atoms                   :        3
  | Max. basis fn. angular momentum   :        4
  | Max. atomic/ionic basis occupied n:        2
  | Max. number of basis fn. types    :        2
  | Max. radial fns per species/type  :        5
  | Max. logarithmic grid size        :     1301
  | Max. radial integration grid size :       73
  | Max. angular integration grid size:      434
  | Max. angular grid division number :        8
  | Radial grid for Hartree potential :     1301
  | Number of spin channels           :        1
  | Cube type output requested        :        5

------------------------------------------------------------
          Reading file control.in.
------------------------------------------------------------
  XC: Using exact exchange energy formalism (HF unless otherwise stated below).
  Hartree-Fock calculation starts ......
  Attention: this version of Hartree-Fock employs an auxiliary basis.
  Spin treatment: No spin polarisation.
  Scalar relativistic treatment of kinetic energy: on-site free-atom approximation to ZORA.
  Mulliken charge analysis will be performed and summarised to the main output.
  Full Mulliken charge analysis will be written to file 'Mulliken.out'.
  Kohn-Sham eigenvalues and eigenfunctions calculated by LAPACK via ELSI.
  'cube'-style plottable output required: Wavefunction for eigenstate        1
  | Cube output options:
 * Cube origin was not provided following cube request. Will be using default value.
 * Cube edges were not provided following cube request. Defaults will be used.
 Standard cube format requested.

  'cube'-style plottable output required: Wavefunction for eigenstate        2
  | Cube output options:
 * Cube origin was not provided following cube request. Will be using default value.
 * Cube edges were not provided following cube request. Defaults will be used.
 Standard cube format requested.

  'cube'-style plottable output required: Wavefunction for eigenstate        3
  | Cube output options:
 * Cube origin was not provided following cube request. Will be using default value.
 * Cube edges were not provided following cube request. Defaults will be used.
 Standard cube format requested.

  'cube'-style plottable output required: Wavefunction for eigenstate        4
  | Cube output options:
 * Cube origin was not provided following cube request. Will be using default value.
 * Cube edges were not provided following cube request. Defaults will be used.
 Standard cube format requested.

  'cube'-style plottable output required: Wavefunction for eigenstate        5
  | Cube output options:
 * Cube origin was not provided following cube request. Will be using default value.
 * Cube edges were not provided following cube request. Defaults will be used.
 Standard cube format requested.


  Reading configuration options for species H                   .
  | Found nuclear charge :   1.0000
  | Found atomic mass :    1.0079400000000001      amu
  | Found l_max for Hartree potential  :   6
  | Found cutoff potl. onset [A], width [A], scale factor :    4.00000    2.00000    1.00000
  | Threshold for basis-dependent cutoff potential is   0.100000E-03
  | Found data for basic radial integration grid :    24 points, outermost radius =    7.000 A
  | Found multiplier for basic radial grid :   2
  | Found angular grid specification: user-specified.
  | Specified grid contains     6 separate shells.
  | Check grid settings after all constraints further below.
  | Found free-atom valence shell :  1 s   1.000
  | No ionic wave fns used. Skipping ion_occ.
  | Found hydrogenic basis function :  2 s   2.100
  | Found hydrogenic basis function :  2 p   3.500
  | Found hydrogenic basis function :  1 s   0.850
  | Found hydrogenic extended basis function :  3 d   7.000
  Species H                   : Missing cutoff potential type.
  Defaulting to exp(1/x)/(1-x)^2 type cutoff potential.
  Species H : No 'logarithmic' tag. Using default grid for free atom:
  | Default logarithmic grid data [bohr] : 0.1000E-03 0.1000E+03 0.1012E+01
  Species H : On-site basis accuracy parameter (for Gram-Schmidt orthonormalisation) not specified.
  Using default value basis_acc =  0.1000000E-03.
  Species H                   : Using default innermost maximum threshold i_radial=  2 for radial functions.
  Species H                   : Default cutoff onset for free atom density etc. : 0.40000000E+01 AA.
  Species H                   : Basic radial grid will be enhanced according to radial_multiplier =   2, to contain    49 grid points.

  Reading configuration options for species O                   .
  | Found nuclear charge :   8.0000
  | Found atomic mass :    15.999400000000000      amu
  | Found l_max for Hartree potential  :   6
  | Found cutoff potl. onset [A], width [A], scale factor :    4.00000    2.00000    1.00000
  | Threshold for basis-dependent cutoff potential is   0.100000E-03
  | Found data for basic radial integration grid :    36 points, outermost radius =    7.000 A
  | Found multiplier for basic radial grid :   2
  | Found angular grid specification: user-specified.
  | Specified grid contains     6 separate shells.
  | Check grid settings after all constraints further below.
  | Found free-atom valence shell :  2 s   2.000
  | Found free-atom valence shell :  2 p   4.000
  | No ionic wave fns used. Skipping ion_occ.
  | No ionic wave fns used. Skipping ion_occ.
  | Found hydrogenic basis function :  2 p   1.800
  | Found hydrogenic basis function :  3 d   7.600
  | Found hydrogenic basis function :  3 s   6.400
  | Found hydrogenic basis function :  4 f  11.600
  | Found hydrogenic extended basis function :  5 g  17.600
  Species O                   : Missing cutoff potential type.
  Defaulting to exp(1/x)/(1-x)^2 type cutoff potential.
  Species O : No 'logarithmic' tag. Using default grid for free atom:
  | Default logarithmic grid data [bohr] : 0.1000E-03 0.1000E+03 0.1012E+01
  Species O : On-site basis accuracy parameter (for Gram-Schmidt orthonormalisation) not specified.
  Using default value basis_acc =  0.1000000E-03.
  Species O                   : Using default innermost maximum threshold i_radial=  2 for radial functions.
  Species O                   : Default cutoff onset for free atom density etc. : 0.40000000E+01 AA.
  Species O                   : Basic radial grid will be enhanced according to radial_multiplier =   2, to contain    73 grid points.

  Finished reading input file 'control.in'.

------------------------------------------------------------


------------------------------------------------------------
          Reading geometry description geometry.in.
------------------------------------------------------------
  | The smallest distance between any two atoms is         0.96098523 AA.
  | The first atom of this pair is atom number                      1 .
  | The second atom of this pair is atom number                     2 .
  Input structure read successfully.
  The structure contains        3 atoms,  and a total of         10.000 electrons.

  Input geometry:
  | No unit cell requested.
  | Atomic structure:
  |       Atom                x [A]            y [A]            z [A]
  |    1: Species O            -0.20579314        0.17901400        0.79211421
  |    2: Species H             0.75459169        0.20314483        0.81601579
  |    3: Species H            -0.49379856        0.82384117        1.44387000


  Finished reading input file 'geometry.in'.



  Consistency checks for stacksize environment parameter are next.

  | Maximum stacksize for task 0: unlimited
  | Maximum stacksize for task 1: unlimited
  | Maximum stacksize for task 2: unlimited
  | Maximum stacksize for task 3: unlimited
  | Maximum stacksize for task 4: unlimited
  | Maximum stacksize for task 5: unlimited
  | Maximum stacksize for task 6: unlimited
  | Maximum stacksize for task 7: unlimited
  | Maximum stacksize for task 8: unlimited
  | Maximum stacksize for task 9: unlimited
  | Maximum stacksize for task 10: unlimited
  | Maximum stacksize for task 11: unlimited
  | Maximum stacksize for task 12: unlimited
  | Maximum stacksize for task 13: unlimited
  | Maximum stacksize for task 14: unlimited
  | Maximum stacksize for task 15: unlimited
  | Maximum stacksize for task 16: unlimited
  | Maximum stacksize for task 17: unlimited
  | Maximum stacksize for task 18: unlimited
  | Maximum stacksize for task 19: unlimited
  | Maximum stacksize for task 20: unlimited
  | Maximum stacksize for task 21: unlimited
  | Maximum stacksize for task 22: unlimited
  | Maximum stacksize for task 23: unlimited
  | Current stacksize for task 0: unlimited
  | Current stacksize for task 1: unlimited
  | Current stacksize for task 2: unlimited
  | Current stacksize for task 3: unlimited
  | Current stacksize for task 4: unlimited
  | Current stacksize for task 5: unlimited
  | Current stacksize for task 6: unlimited
  | Current stacksize for task 7: unlimited
  | Current stacksize for task 8: unlimited
  | Current stacksize for task 9: unlimited
  | Current stacksize for task 10: unlimited
  | Current stacksize for task 11: unlimited
  | Current stacksize for task 12: unlimited
  | Current stacksize for task 13: unlimited
  | Current stacksize for task 14: unlimited
  | Current stacksize for task 15: unlimited
  | Current stacksize for task 16: unlimited
  | Current stacksize for task 17: unlimited
  | Current stacksize for task 18: unlimited
  | Current stacksize for task 19: unlimited
  | Current stacksize for task 20: unlimited
  | Current stacksize for task 21: unlimited
  | Current stacksize for task 22: unlimited
  | Current stacksize for task 23: unlimited

  Consistency checks for the contents of control.in are next.

  MPI_IN_PLACE appears to work with this MPI implementation.
  | Keeping use_mpi_in_place .true. (see manual).
  Explicit treatment of the Coulomb operator is needed, but the RI method is not specified.
  Coulomb operator: Defaulting to 'LVL fast' resolution of identity - RI_type = LVL_fast
  Species H: Using default value for prodbas_acc =   1.000000E-04.
  Species H: Using default value max_l_prodbas =    20.
  Species O: Using default value for prodbas_acc =   1.000000E-04.
  Species O: Using default value max_l_prodbas =    20.
  Target number of points in a grid batch is not set. Defaulting to  100
  Method for grid partitioning is not set. Defaulting to parallel hash+maxmin partitioning.
  Batch size limit is not set. Defaulting to    200
  By default, will store active basis functions for each batch.
  If in need of memory, prune_basis_once .false. can be used to disable this option.
  communication_type for Hartree potential was not specified.
  Defaulting to calc_hartree .
  Defaulting to Pulay charge density mixer.
  Pulay mixer: Number of relevant iterations not set.
  Defaulting to    8 iterations.
  Pulay mixer: Number of initial linear mixing iterations not set.
  Defaulting to    0 iterations.
  Work space size for distributed Hartree potential not set.
  Defaulting to   0.200000E+03 MB.
  Mixing parameter for charge density mixing has not been set.
  Using default: charge_mix_param =     0.0500.
  The mixing parameter will be adjusted in iteration number     2 of the first full s.c.f. cycle only.
  Algorithm-dependent basis array size parameters:
  | n_max_pulay                         :        8
  Maximum number of self-consistency iterations not provided.
  Presetting  1000 iterations.
  Presetting      1001 iterations before the initial mixing cycle
  is restarted anyway using the sc_init_iter criterion / keyword.
  Presetting a factor      1.000 between actual scf density residual
  and density convergence criterion sc_accuracy_rho below which sc_init_iter
  takes no effect.
 * No s.c.f. convergence criteria (sc_accuracy_*) were provided in control.in.
 * The run will proceed with a reasonable default guess, but please check whether.
 * the s.c.f. cycles seem to take too much or too little time.
  Calculation of forces was not defined in control.in. No forces will be calculated.
  Geometry relaxation not requested: no relaxation will be performed.
 * Notice: The s.c.f. convergence criterion sc_accuracy_rho was not provided.
 * We used to stop in this case, and ask the user to provide reasonable
 * scf convergence criteria. However, this led some users to employ criteria
 * that led to extremely long run times, e.g., for simple relaxation.
 * We now preset a default value for sc_accuracy_rho if it is not set.
 * You may still wish to check if this setting is too tight or too loose for your needs.
 * Based on n_atoms and forces and force-correction status, FHI-aims chose sc_accuracy_rho =  0.100000E-05 .
  No accuracy limit for integral partition fn. given. Defaulting to  0.1000E-14.
  No threshold value for u(r) in integrations given. Defaulting to  0.1000E-05.
  No occupation type (smearing scheme) given. Defaulting to Gaussian broadening, width =  0.1000E-01 eV.
  The width will be adjusted in iteration number     2 of the first full s.c.f. cycle only.
  S.C.F. convergence parameters will be adjusted in iteration number     2 of the first full s.c.f. cycle only.
  No accuracy for occupation numbers given. Defaulting to  0.1000E-12.
  No threshold value for occupation numbers given. Defaulting to  0.0000E+00.
  No accuracy for fermi level given. Defaulting to  0.1000E-19.
  Maximum # of iterations to find E_F not set. Defaulting to  200.
  Will not use alltoall communication since running on < 1024 CPUs.
  Threshold for basis singularities not set.
  Default threshold for basis singularities:  0.1000E-04
  partition_type (choice of integration weights) for integrals was not specified.
  | Using a version of the partition function of Stratmann and coworkers ('stratmann_sparse').
  | At each grid point, the set of atoms used to build the partition table is smoothly restricted to
  | only those atoms whose free-atom density would be non-zero at that grid point.
  Partitioning for Hartree potential was not defined. Using partition_type for integrals.
  | Adjusted default value of keyword multip_moments_threshold to:       0.10000000E-11
  | This value may affect high angular momentum components of the Hartree potential in periodic systems.
  Threshold for auxiliary basis singularities not set.
  Default threshold for auxiliary basis singularities:  0.1000E-04
  No q(lm)/r^(l+1) cutoff set for long-range Hartree potential.
  | Using default value of  0.100000E-09 .
  | Verify using the multipole_threshold keyword.
  Defaulting to new monopole extrapolation.
  Density update method: automatic selection selected.
  Coulomb operator: Defaulting to screening threshold for four-center integrals:   0.100000E-06
  Coulomb operator: Defaulting to screening threshold for Coulomb matrix:   0.100000E-09
  Fock matrix calculation: Setting the screening threshold for overlap matrix to coul_mat_threshold:   0.100000E-09
  Coulomb operator: Defaulting to 'LVL_fast' resolution of identity - RI_type = LVL_fast 
  No other resolution of identity version is supported for periodic boundary conditions at present.
  Coulomb operator: Defaulting to logarithmic spherical Bessel transform integrals (use_logsbt .true.).
  Charge integration errors on the 3D integration grid will be compensated
  by explicit normalization and distribution of residual charges.
  Use the "compensate_multipole_errors" flag to change this behaviour.
  LVL not implemented with density matrix yet
  -> switching to transformed overlap
  LVL probably works better with logsbt
  Default to 1D ("use_logsbt") integrations for auxiliary 2-center integrals.
  Default onset of logarithmic r-grid for SBT is -38.000000000000
  Default onset of logarithmic k-grid for SBT is -25.000000000000
  Default range of logarithmic r- and k-grid for SBT is  45.000000000000
  Default number of logarithmic r- and k-grid for SBT is   4096
  * Volumetric cube output requested. Tightening default wave_threshold to 1d-8
  Set 'collect_eigenvectors' to be '.true.' for all serial calculations. This is mandatory.
  Set 'collect_eigenvectors' to be '.true.' for use_density_matrix .false.
  Set 'collect_eigenvectors' to be '.true.' for xc mp2.
  Set 'collect_eigenvectors' to be '.true.' for KS_method lapack_fast and serial.

  Consistency checks for the contents of geometry.in are next.

  Number of empty states per atom not set in control.in - providing a guess from actual geometry.
  | Total number of empty states used during s.c.f. cycle:        6
  If you use a very high smearing, use empty_states (per atom!) in control.in to increase this value.

  Structure-dependent array size parameters: 
  | Maximum number of distinct radial functions  :       13
  | Maximum number of basis functions            :       52
  | Number of Kohn-Sham states (occupied + empty):       11
------------------------------------------------------------
  Setting Coulomb cut-width to  1.091868692359 * rcut.
  Setting Coulomb cutting radius rcut to  8.000000000000 A.
  After read_input_data [GB]:   1042.66

  Performing system and environment tests:
  *** Environment variable OMP_NUM_THREADS is not set
  *** For performance reasons you might want to set it to 1
  | Checking for ScaLAPACK...
  | Testing pdtran()...
  | All pdtran() tests passed.
  After prepare_system [GB]:   1042.59

------------------------------------------------------------
          Preparing all fixed parts of the calculation.
------------------------------------------------------------
  Determining machine precision:
     2.2250738585072014E-308
  Setting up grids for atomic and cluster calculations.

  Creating wave function, potential, and density for free atoms.
  Runtime choices for atomic solver:
  | atomic solver xc        : PW-LDA
  | compute density gradient: 0
  | compute kinetic density : F

  Species: H

  List of occupied orbitals and eigenvalues:
    n    l              occ      energy [Ha]    energy [eV]
    1    0           1.0000        -0.233224        -6.3463


  Species: O

  List of occupied orbitals and eigenvalues:
    n    l              occ      energy [Ha]    energy [eV]
    1    0           2.0000       -18.786458      -511.2055
    2    0           2.0000        -0.872894       -23.7527
    2    1           4.0000        -0.337952        -9.1962


  Adding cutoff potential to free-atom effective potential.
  Creating fixed part of basis set: Ionic, confined, hydrogenic.

  H                    hydrogenic:

  List of hydrogenic basis orbitals: 
    n    l      effective z      eigenvalue [eV]  inner max. [A]     outer max. [A]     outer radius [A]   
    2    0         2.100000       -14.9965           0.193243           1.317208           5.573719
    2    1         3.500000       -41.6672           0.602369           0.602369           4.259334
    1    0         0.850000        -9.8292           0.624871           0.624871           5.573719

  List of extra hydrogenic orbitals for auxiliary basis: 
    n    l      effective z      eigenvalue [eV]  inner max. [A]     outer max. [A]     outer radius [A]   
    3    2         7.000000       -74.0753           0.680699           0.680699           3.958095


  O                    hydrogenic:

  List of hydrogenic basis orbitals: 
    n    l      effective z      eigenvalue [eV]  inner max. [A]     outer max. [A]     outer radius [A]   
    2    1         1.800000       -11.0118           1.178562           1.178562           5.567066
    3    2         7.600000       -87.3182           0.624125           0.624125           3.764702
    3    0         6.400000       -61.9209           0.061167           1.081902           4.522403
    4    3        11.600000      -114.4238           0.731631           0.731631           3.811008

  List of extra hydrogenic orbitals for auxiliary basis: 
    n    l      effective z      eigenvalue [eV]  inner max. [A]     outer max. [A]     outer radius [A]   
    5    4        17.600000      -168.5799           0.749740           0.749740           3.629133

  Creating atomic-like basis functions for current effective potential.

  Species H                   :

  List of atomic basis orbitals and eigenvalues:
    n    l      energy [Ha]    energy [eV]    outer radius [A]
    1    0        -0.233224        -6.3463       5.573719


  Species O                   :

  List of atomic basis orbitals and eigenvalues:
    n    l      energy [Ha]    energy [eV]    outer radius [A]
    1    0       -18.786458      -511.2055       1.830144
    2    0        -0.872894       -23.7527       5.366593
    2    1        -0.337952        -9.1962       5.499423

  Assembling full basis from fixed parts.
  | Species H :   atomic orbital   1 s accepted.
  | Species H :    hydro orbital   2 s accepted.
  | Species H :    hydro orbital   1 s accepted.
  | Species H :    hydro orbital   2 p accepted.
  | Species O :   atomic orbital   1 s accepted.
  | Species O :    hydro orbital   3 s accepted.
  | Species O :   atomic orbital   2 s accepted.
  | Species O :   atomic orbital   2 p accepted.
  | Species O :    hydro orbital   2 p accepted.
  | Species O :    hydro orbital   3 d accepted.
  | Species O :    hydro orbital   4 f accepted.

  Basis size parameters after reduction:
  | Total number of radial functions:       11
  | Total number of basis functions :       33

  Assembling extended basis for auxiliary basis.
  | Species H :   atomic orbital   1 s accepted.
  | Species H :    hydro orbital   2 s accepted.
  | Species H :    hydro orbital   1 s accepted.
  | Species H :    hydro orbital   2 p accepted.
  | Species H :    hydro orbital   3 d accepted.
  | Species O :   atomic orbital   1 s accepted.
  | Species O :    hydro orbital   3 s accepted.
  | Species O :   atomic orbital   2 s accepted.
  | Species O :   atomic orbital   2 p accepted.
  | Species O :    hydro orbital   2 p accepted.
  | Species O :    hydro orbital   3 d accepted.
  | Species O :    hydro orbital   4 f accepted.
  | Species O :    hydro orbital   5 g accepted.
  Per-task memory consumption for arrays in subroutine allocate_ext:
  |           4.331812MB.

  Extended basis size parameters after reduction:
  | Total number of radial functions:       13
  | Total number of basis functions :       52

  Testing on-site integration grid accuracy.
  |  Species  Function  <phi|h_atom|phi> (log., in eV)  <phi|h_atom|phi> (rad., in eV)
           1        1                 -6.3466384203                 -6.3467402336
           1        2                 13.9242983524                 13.9240039182
           1        3                 42.6164017638                 42.6068629502
           1        4                 25.3391878353                 25.3391881427
           2        5               -511.2055257460               -511.2055212647
           2        6                 14.8909316291                 14.8909245888
           2        7                -21.2761098745                -21.2761142506
           2        8                 -9.1961746418                 -9.1961748430
           2        9                  7.8010480239                  7.8010440885
           2       10                 45.7917095645                 45.7917095443
           2       11                 85.3009901325                 85.3009901592

  Preparing densities etc. for the partition functions (integrals / Hartree potential).

  Preparations completed.
  max(cpu_time)          :      0.116 s.
  Wall clock time (cpu1) :      0.111 s.
------------------------------------------------------------
  After prepare_scf [GB]:   1042.30

  Initializing index lists of integration centers etc. from given atomic structure:
  | Number of centers in hartree potential         :         3
  | Number of centers in hartree multipole         :         3
  | Number of centers in electron density summation:         3
  | Number of centers in basis integrals           :         3
  | Number of centers in integrals                 :         3
  | Number of centers in hamiltonian               :         3
  After initialize_bc_dependent_lists [GB]:   1042.30

------------------------------------------------------------
          Begin self-consistency loop: Initialization.

          Date     :  20240328, Time     :  132832.646
------------------------------------------------------------
  Available memory per node after initialize_hartree_non_periodic_ewald [GB]:   1042.30
  Available memory per node after initialize_recip_hartree_potential [GB]:   1042.30
  Available memory per node after initialize_scalapack [GB]:   1042.30
  Available memory per node after aims_elsi_init_scf [GB]:   1042.30
  Available memory per node after initialize_fixed_grids [GB]:   1042.30
  Partitioning the integration grid into batches with parallel hashing+maxmin method.
  | Number of batches:      696
  | Maximal batch size:     184
  | Minimal batch size:      46
  | Average batch size:      70.457
  | Standard deviation of batch sizes:      20.897

  Integration load balanced across    24 MPI tasks.
  Work distribution over tasks is as follows:
  Task     0 has       2073 integration points.
  Task     1 has       2016 integration points.
  Task     2 has       1985 integration points.
  Task     3 has       2062 integration points.
  Task     4 has       2026 integration points.
  Task     5 has       1998 integration points.
  Task     6 has       2072 integration points.
  Task     7 has       2077 integration points.
  Task     8 has       2047 integration points.
  Task     9 has       2043 integration points.
  Task    10 has       2077 integration points.
  Task    11 has       2009 integration points.
  Task    12 has       2049 integration points.
  Task    13 has       2081 integration points.
  Task    14 has       2057 integration points.
  Task    15 has       1992 integration points.
  Task    16 has       2018 integration points.
  Task    17 has       2067 integration points.
  Task    18 has       2021 integration points.
  Task    19 has       2060 integration points.
  Task    20 has       2037 integration points.
  Task    21 has       2042 integration points.
  Task    22 has       2053 integration points.
  Task    23 has       2076 integration points.
  Available memory per node after partition_grid [GB]:   1042.30
  Initializing partition tables, free-atom densities, potentials, etc. across the integration grid (initialize_grid_storage).
  | initialize_grid_storage: Actual outermost partition radius vs. multipole_radius_free
  | (-- VB: in principle, multipole_radius_free should be larger, hence this output)
  | Species        1: Confinement radius =              6.000000000000000 AA, multipole_radius_free =              6.071692442739658 AA.
  | Species        1: outer_partition_radius set to              6.071692442739658 AA .
  | Species        2: Confinement radius =              6.000000000000000 AA, multipole_radius_free =              6.064445521808699 AA.
  | Species        2: outer_partition_radius set to              6.064445521808699 AA .
  | The sparse table of interatomic distances needs          0.09 kbyte instead of         0.07 kbyte of memory.
  | Using the partition_type stratmann_smoother will reduce your memory usage.
  | Net number of integration points:    49038
  | of which are non-zero points    :    43875
  Available memory per node after initialize_grid_storage_p1 [GB]:   1042.30
  Renormalizing the initial density to the exact electron count on the 3D integration grid.
  | Initial density: Formal number of electrons (from input files) :      10.0000000000
  | Integrated number of electrons on 3D grid     :      10.0000003857
  | Charge integration error                      :       0.0000003857
  | Normalization factor for density and gradient :       0.9999999614
  Renormalizing the free-atom superposition density to the exact electron count on the 3D integration grid.
  | Formal number of electrons (from input files) :      10.0000000000
  | Integrated number of electrons on 3D grid     :      10.0000003857
  | Charge integration error                      :       0.0000003857
  | Normalization factor for density and gradient :       0.9999999614
  Obtaining max. number of non-zero basis functions in each batch (get_n_compute_maxes).
  | Maximal number of non-zero basis functions:       33 in task     0
  | Maximal number of non-zero basis functions:       33 in task     1
  | Maximal number of non-zero basis functions:       33 in task     2
  | Maximal number of non-zero basis functions:       33 in task     3
  | Maximal number of non-zero basis functions:       33 in task     4
  | Maximal number of non-zero basis functions:       33 in task     5
  | Maximal number of non-zero basis functions:       33 in task     6
  | Maximal number of non-zero basis functions:       33 in task     7
  | Maximal number of non-zero basis functions:       33 in task     8
  | Maximal number of non-zero basis functions:       33 in task     9
  | Maximal number of non-zero basis functions:       33 in task    10
  | Maximal number of non-zero basis functions:       33 in task    11
  | Maximal number of non-zero basis functions:       33 in task    12
  | Maximal number of non-zero basis functions:       33 in task    13
  | Maximal number of non-zero basis functions:       33 in task    14
  | Maximal number of non-zero basis functions:       33 in task    15
  | Maximal number of non-zero basis functions:       33 in task    16
  | Maximal number of non-zero basis functions:       33 in task    17
  | Maximal number of non-zero basis functions:       33 in task    18
  | Maximal number of non-zero basis functions:       33 in task    19
  | Maximal number of non-zero basis functions:       33 in task    20
  | Maximal number of non-zero basis functions:       33 in task    21
  | Maximal number of non-zero basis functions:       33 in task    22
  | Maximal number of non-zero basis functions:       33 in task    23
  Selecting the method for density update.
  Loop over occupied states selected for charge density update.
  Available memory per node after get_n_compute_maxes_p1 [GB]:   1042.30
  Allocating        0.003 MB for KS_eigenvector
  Available memory per node after allocate_matrices [GB]:   1042.30
  Available memory per node after init_comm_sparse_local_matrix_scalapack [GB]:   1042.30
  Integrating Hamiltonian matrix: batch-based integration.
  Time summed over all CPUs for integration: real work        0.065 s, elapsed        0.091 s => Consider using load balancing!
  Available memory per node after integrate hamiltonian matrix [GB]:   1042.30
  Integrating overlap matrix.
  Time summed over all CPUs for integration: real work        0.034 s, elapsed        0.050 s
  Available memory per node after integrate ovlp matrix [GB]:   1042.30
  Available memory per node after ASI_callbacks invoke [GB]:   1042.30
  Available memory per node after save_overlap_scalapack [GB]:   1042.30

  Updating Kohn-Sham eigenvalues and eigenvectors using ELSI and the (modified) LAPACK eigensolver.
  Overlap matrix is not singular
  | Lowest and highest eigenvalues :  0.1432E-01,  0.2713E+01
  Finished singularity check of overlap matrix
  | Time :     0.000 s
  Starting LAPACK eigensolver
  Finished Cholesky decomposition
  | Time :     0.000 s
  Finished transformation to standard eigenproblem
  | Time :     0.000 s
  Finished solving standard eigenproblem
  | Time :     0.000 s
  Finished back-transformation of eigenvectors
  | Time :     0.000 s

  Obtaining occupation numbers and electronic chemical potential using ELSI.
  | Note that, for insulating systems, the printed 'chemical potential' value is not uniquely defined.
  | It can be anywhere in the energy gap, as long as it correctly separates occupied and unoccupied states.
  | In systems with a gap, the physically relevant chemical potential is the VBM or HOMO.

  | Chemical potential (Fermi level):    -9.32446851 eV
  Available memory per node after advance_KS_solution [GB]:   1042.30
  Writing Kohn-Sham eigenvalues.

  State    Occupation    Eigenvalue [Ha]    Eigenvalue [eV]
      1       2.00000         -18.903219         -514.38276
      2       2.00000          -1.104538          -30.05600
      3       2.00000          -0.645413          -17.56258
      4       2.00000          -0.519877          -14.14657
      5       2.00000          -0.452076          -12.30161
      6       0.00000          -0.063000           -1.71431
      7       0.00000           0.009167            0.24945
      8       0.00000           0.174808            4.75677
      9       0.00000           0.196085            5.33575
     10       0.00000           0.222570            6.05644
     11       0.00000           0.256060            6.96773

  Highest occupied state (VBM) at    -12.30160748 eV
  | Occupation number:      2.00000000

  Lowest unoccupied state (CBM) at    -1.71430742 eV
  | Occupation number:      0.00000000

  Overall HOMO-LUMO gap:     10.58730006 eV.
  Calculating total energy contributions from superposition of free atom densities.

  Total energy components:
  | Sum of eigenvalues            :         -43.25024461 Ha       -1176.89903584 eV
  | XC energy correction          :          -8.51432296 Ha        -231.68651571 eV
  | XC potential correction       :          11.21491550 Ha         305.17337773 eV
  | Free-atom electrostatic energy:         -35.52638593 Ha        -966.72214731 eV
  | Hartree energy correction     :          -0.00000000 Ha          -0.00000000 eV
  | Entropy correction            :          -0.00000000 Ha          -0.00000000 eV
  | ---------------------------
  | Total energy                  :         -76.07603800 Ha       -2070.13432114 eV
  | Total energy, T -> 0          :         -76.07603800 Ha       -2070.13432114 eV  <-- do not rely on this value for anything but (periodic) metals
  | Electronic free energy        :         -76.07603800 Ha       -2070.13432114 eV

  Derived energy quantities:
  | Kinetic energy                :          75.04936856 Ha        2042.19722428 eV
  | Electrostatic energy          :        -142.61108360 Ha       -3880.64502970 eV
  | Energy correction for multipole
  | error in Hartree potential    :           0.00000000 Ha           0.00000000 eV
  | Sum of eigenvalues per atom                           :        -392.29967861 eV
  | Total energy (T->0) per atom                          :        -690.04477371 eV  <-- do not rely on this value for anything but (periodic) metals
  | Electronic free energy per atom                       :        -690.04477371 eV
  
  --------------------------------------------
  Constructing auxiliary basis (full product) ...
  
  Product basis:
  | charge radius: extent of product basis function
  | field radius: extent of its Coulomb potential
  | Species   l  charge radius    field radius  multipol momen
  |    H      3     3.910002 A      3.910002 A        3.728046E-16 a.u.
  |    H      2     4.105953 A      4.105953 A        9.550282E-17 a.u.
  |    H      2     4.156456 A      4.156456 A       -2.668643E-17 a.u.
  |    H      2     4.207581 A      4.207581 A        4.540965E-16 a.u.
  |    H      1     4.311724 A      4.311724 A        8.238809E-17 a.u.
  |    H      1     4.418445 A      4.418445 A       -8.710111E-16 a.u.
  |    H      1     4.418445 A      4.418445 A       -1.038980E-16 a.u.
  |    H      1     4.418445 A      4.418445 A       -4.685633E-16 a.u.
  |    H      0     5.307721 A      5.307721 A        1.602376E-16 a.u.
  |    H      0     5.307721 A      5.373006 A        3.526250E-17 a.u.
  |    H      0     5.439094 A      5.505995 A        7.038998E-17 a.u.
  |    H      0     5.439094 A      5.505995 A       -3.585407E-16 a.u.
  |    H      0     5.439094 A      5.505995 A       -7.658471E-17 a.u.
  |    H      4     3.723403 A  1.627943E+03 A            2.192707 a.u.
  |    H      3     3.862494 A  1.011828E+04 A            1.063683 a.u.
  |    H      2     4.207581 A  4.049771E+05 A            3.566796 a.u.
  |    H      1     4.418445 A  2.186423E+08 A            1.358490 a.u.
  |    H      0     5.439094 A  4.524897E+16 A            0.680452 a.u.
  |    O      0     2.043000 A      2.043000 A        1.425284E-16 a.u.
  |    O      5     3.455938 A      3.455938 A        6.450434E-16 a.u.
  |    O      7     3.498446 A      3.498446 A        2.650251E-14 a.u.
  |    O      6     3.585037 A      3.585037 A        8.000056E-15 a.u.
  |    O      6     3.585037 A      3.585037 A        2.109690E-14 a.u.
  |    O      5     3.764702 A      3.764702 A       -1.991557E-15 a.u.
  |    O      5     3.811008 A      3.811008 A       -1.405440E-14 a.u.
  |    O      3     3.905335 A      3.905335 A       -4.970713E-16 a.u.
  |    O      3     3.905335 A      3.905335 A       -3.745597E-16 a.u.
  |    O      3     3.905335 A      3.905335 A       -2.736496E-16 a.u.
  |    O      4     3.905335 A      3.905335 A       -8.559140E-16 a.u.
  |    O      3     3.953371 A      3.953371 A        6.024219E-16 a.u.
  |    O      4     3.953371 A      3.953371 A       -2.049605E-16 a.u.
  |    O      3     4.001998 A      4.001998 A       -9.823673E-16 a.u.
  |    O      4     4.001998 A      4.001998 A        1.383704E-15 a.u.
  |    O      4     4.001998 A      4.001998 A       -7.373831E-15 a.u.
  |    O      0     4.202559 A      4.202559 A       -1.325736E-16 a.u.
  |    O      0     4.202559 A      4.202559 A        3.314543E-18 a.u.
  |    O      0     4.467453 A      4.467453 A        1.111206E-17 a.u.
  |    O      1     4.467453 A      4.467453 A       -4.321717E-17 a.u.
  |    O      0     4.987044 A      4.987044 A       -3.363822E-16 a.u.
  |    O      1     5.110480 A      5.110480 A       -1.038082E-16 a.u.
  |    O      1     5.301386 A      5.301386 A        3.997489E-16 a.u.
  |    O      1     5.301386 A      5.301386 A       -1.295448E-16 a.u.
  |    O      2     5.301386 A      5.301386 A       -4.233066E-16 a.u.
  |    O      1     5.366593 A      5.366593 A        4.774050E-17 a.u.
  |    O      2     5.366593 A      5.366593 A       -4.606948E-16 a.u.
  |    O      2     5.366593 A      5.366593 A        5.641967E-16 a.u.
  |    O      2     5.366593 A      5.366593 A       -1.065862E-15 a.u.
  |    O      0     5.366593 A      5.432602 A        6.348126E-17 a.u.
  |    O      1     5.432602 A      5.432602 A       -1.427192E-17 a.u.
  |    O      2     5.432602 A      5.432602 A        3.021116E-15 a.u.
  |    O      2     5.432602 A      5.432602 A       -1.536705E-15 a.u.
  |    O      0     5.432602 A      5.499423 A       -1.119517E-16 a.u.
  |    O      1     5.432602 A      5.499423 A        3.464100E-16 a.u.
  |    O      8     3.372465 A  6.545495E+01 A           53.933996 a.u.
  |    O      7     3.541477 A  1.266729E+02 A           85.792738 a.u.
  |    O      6     3.629133 A  2.682334E+02 A           68.418201 a.u.
  |    O      5     3.857883 A  7.345177E+02 A           56.911094 a.u.
  |    O      4     4.001998 A  2.712908E+03 A           28.181223 a.u.
  |    O      3     4.001998 A  1.927176E+04 A           13.998178 a.u.
  |    O      2     5.432602 A  5.618076E+05 A            9.522471 a.u.
  |    O      1     5.432602 A  2.788372E+08 A            2.209475 a.u.
  |    O      0     5.432602 A  4.232917E+16 A            0.636545 a.u.

  | Shrink_full_auxil_basis : there are       62  radial auxiliary wave functions
                            accepted and      47 rejected.
  | Shrink_full_auxil_basis : there are totally                 412 partial auxiliary wave functions.
  prodbas_tasks_distribution_pbc not up to date - distributing tasks.

  | Number of product basis functions per thread :    18
  Parallel distribution of product basis not up to date - distributing tasks.

  | Number of product basis functions per thread :    18
  | Minimal requirement for computer memory :           0.003 Gbs
  Minimal free memory per node on init_fm entry [GB]:   1042.16
  -----------------------------------------
  --- Initializing Fock matrix calculations
  -----------------------------------------
  screening_threshold (crit_val) =  0.000000100000
  coul_mat_threshold =  0.000000000100
  No atoms are split internally
  Number of super-cells in X Y Z:       0       0       0
  Number of atoms pairs total:            9
  Atom pair distribution:
  Cell:        0       0       0 atom pairs:        9
  sparsity of pfbvk:   1.00000000
  Number of atoms pairs in BvK cells:            9
  Max. memory consumption per node for Pulay mixing [GB]:      0.00
  Minimal total memory per node [GB]:   1056.61
  Minimal free memory per node [GB]:   1042.16
  --- Initializing LVL triples, type COULOMB
  | Storage requirements for basis-basbas products (processor-local):
  |   Species H: n_prodsfn:    84; storage:        2.62 MiB.
  |   Species O: n_prodsfn:   529; storage:       16.53 MiB.

  --- Initializing Coulomb matrix calculations, type COULOMB
  Preparing TB like auxiliary 2-center Coulomb matrix
  SBT integration errors (all should be 'small'):
  large logFT aliasing -> increase N/lnrange
  large SBT aliasing -> decrease lnk0 & increase lnk0+lnrange
  large SBT ringing -> decrease lnr0 & increase lnr0+lnrange
  |            El't  L: logFT-al.   small-k   large-k   small-r   large-r
  | Need to store  4278 splines of   225 points taking       7592 KiB.
  | Spline reduction from  4096 to   225 points by (cutting and)     1 x coarsening gives error:  0.00E+00
  Finished with initialize_tb_auxmat/lvl_triples, time:        0.178
  --- Calculating Coulomb matrices
  Upper limit for memory consumption per node [GB] for Coulomb matrices if no compression occurs:       0.017
  Upper limit for temporary arrays in Coulomb matrix initalization [GB]:      7.20
  Allocating        0.615 MB for aux_mat
  Min./max. time for Coulomb matrix computation [s]:      0.00      0.00
  Max. memory consumption per node for global Coulomb matrix [GB]:      0.00
  Time to calculate Coulomb Matrices   :        0.004
  After init_coulomb_tuned [GB]:   1041.63
  Max. memory consumption per node for uncompressed ovlp3fn matrix [GB]:       0.002
  --- Calculating OVLP3FN
  --- Done calculating OVLP3FN, time:        0.201
  After init_ovlp3fn_tuned2 [GB]:   1041.51
  Max. memory consumption per node for compressed global ovlp3fn matrix [GB]:      -0.020
  Atomic logSBT for 2-center Coulomb matrix    :  max(cpu_time)    wall_clock(cpu1)
  | TB initialization                           :        0.103 s           0.103 s
  | TB usage                                    :        0.002 s           0.002 s

  Atomic logSBT for LVL-triples                :  max(cpu_time)    wall_clock(cpu1)
  | Multiplication with kernel                  :        0.001 s           0.001 s
  | Main matrix multiplication                  :        0.015 s           0.015 s
  | Analytic angular integration                :        0.002 s           0.000 s
  | Kernel construction                         :        0.003 s           0.002 s
  | Overall 2-center overlap time               :        0.022 s           0.021 s
  | 3-center preparation multiplications        :        0.015 s           0.014 s
  | 3-center preparation SBTs                   :        0.165 s           0.100 s
  | 3-center combinations                       :        0.024 s           0.022 s
  | Overal 3-center time                        :        0.190 s           0.137 s
  | LVL initialization                          :        0.075 s           0.074 s
  | Whole LVL-triples                           :        0.075 s           0.074 s

  Assumed free memory per node for Fock matrix prefactors [GB]    936.50
  Memory per instance for Coulomb / ovlp matrix [GB]      0.00     -0.02
  Number of nodes, tasks per node     1    24
  Number of instances:    2
  -----------------------------------------------------
  Dividing atoms among tasks for exact exchange energy:
  Atom:     1 Weight:  0.19681E+06
  Atom:     2 Weight:   12672.
  Atom:     3 Weight:   12672.

  Average weight per task:   18513.

  Number of "big" (above average) atoms  :     1
  Number of "small" (below average) atoms:     2

  There are "big" and "small" atoms
  Reserving    1 tasks for "big" atoms
  Max. weight for big atoms:  0.19681E+06 small atoms:   12672.
  Trying 2 tasks for "big" atoms:
  Max. weight for big atoms:   98406.     small atoms:   12672.
  => Atom 1 gets 2 tasks
  Trying 3 tasks for "big" atoms:
  Max. weight for big atoms:   65604.     small atoms:   12672.
  => Atom 1 gets 3 tasks
  Trying 4 tasks for "big" atoms:
  Max. weight for big atoms:   49203.     small atoms:   12672.
  => Atom 1 gets 4 tasks
  Trying 5 tasks for "big" atoms:
  Max. weight for big atoms:   39362.     small atoms:   12672.
  => Atom 1 gets 5 tasks
  Trying 6 tasks for "big" atoms:
  Max. weight for big atoms:   32802.     small atoms:   12672.
  => Atom 1 gets 6 tasks
  Trying 7 tasks for "big" atoms:
  Max. weight for big atoms:   28116.     small atoms:   12672.
  => Atom 1 gets 7 tasks
  Trying 8 tasks for "big" atoms:
  Max. weight for big atoms:   24602.     small atoms:   12672.
  => Atom 1 gets 8 tasks
  Trying 9 tasks for "big" atoms:
  Max. weight for big atoms:   21868.     small atoms:   12672.
  => Atom 1 gets 9 tasks
  Trying 10 tasks for "big" atoms:
  Max. weight for big atoms:   19681.     small atoms:   12672.
  => Atom 1 gets 10 tasks
  Trying 11 tasks for "big" atoms:
  Max. weight for big atoms:   17892.     small atoms:   25344.
  Last Distribution was better!
  Using 2 tasks for "small" atoms, 10 for "big" atoms

  Atom division among tasks:
  Atom     1: (initial) task:     0, # of tasks:    10
  Atom     2: (initial) task:    11, # of tasks:     1
  Atom     3: (initial) task:    10, # of tasks:     1

  -----------------------------------------------------
  Task      0: my_n_atoms2:      1 my_atom_list:      1
  Task      1: my_n_atoms2:      1 my_atom_list:      1
  Task      2: my_n_atoms2:      1 my_atom_list:      1
  Task      3: my_n_atoms2:      1 my_atom_list:      1
  Task      4: my_n_atoms2:      1 my_atom_list:      1
  Task      5: my_n_atoms2:      1 my_atom_list:      1
  Task      6: my_n_atoms2:      1 my_atom_list:      1
  Task      7: my_n_atoms2:      1 my_atom_list:      1
  Task      8: my_n_atoms2:      1 my_atom_list:      1
  Task      9: my_n_atoms2:      1 my_atom_list:      1
  Task     10: my_n_atoms2:      1 my_atom_list:      3
  Task     11: my_n_atoms2:      1 my_atom_list:      2
  Task      0: my_n_atoms2:      1 my_atom_list:      1
  Task      1: my_n_atoms2:      1 my_atom_list:      1
  Task      2: my_n_atoms2:      1 my_atom_list:      1
  Task      3: my_n_atoms2:      1 my_atom_list:      1
  Task      4: my_n_atoms2:      1 my_atom_list:      1
  Task      5: my_n_atoms2:      1 my_atom_list:      1
  Task      6: my_n_atoms2:      1 my_atom_list:      1
  Task      7: my_n_atoms2:      1 my_atom_list:      1
  Task      8: my_n_atoms2:      1 my_atom_list:      1
  Task      9: my_n_atoms2:      1 my_atom_list:      1
  Task     10: my_n_atoms2:      1 my_atom_list:      3
  Task     11: my_n_atoms2:      1 my_atom_list:      2
  Task      0: my_n_atom_pairs:      1
  Task      1: my_n_atom_pairs:      1
  Task      2: my_n_atom_pairs:      1
  Task      3: my_n_atom_pairs:      0
  Task      4: my_n_atom_pairs:      0
  Task      5: my_n_atom_pairs:      0
  Task      6: my_n_atom_pairs:      0
  Task      7: my_n_atom_pairs:      0
  Task      8: my_n_atom_pairs:      0
  Task      9: my_n_atom_pairs:      0
  Task     10: my_n_atom_pairs:      3
  Task     11: my_n_atom_pairs:      3
  Task      0: my_n_atom_pairs:      1
  Task      1: my_n_atom_pairs:      1
  Task      2: my_n_atom_pairs:      1
  Task      3: my_n_atom_pairs:      0
  Task      4: my_n_atom_pairs:      0
  Task      5: my_n_atom_pairs:      0
  Task      6: my_n_atom_pairs:      0
  Task      7: my_n_atom_pairs:      0
  Task      8: my_n_atom_pairs:      0
  Task      9: my_n_atom_pairs:      0
  Task     10: my_n_atom_pairs:      3
  Task     11: my_n_atom_pairs:      3
  Transferring Coulomb matrix to final data layout
  Coulomb matrix communicaton time [s]    0.00
  Max. memory per node for ovlp3fn matrices:        0.003 GB
  Total memory for ovlp3fn matrices:        0.002 GB
  --- Done getting norm of OVLP3FN, time:        0.000
  Total memory for ovlp3fn matrices:        0.002 GB
  --- time for get_ovlp3fn:        0.002
  Max. memory consumption per node for Hartree Fock matrix [GB]      0.00
  Blocksize for Fock matrix computation:     6
  Minimal free memory per node after Fock matrix initialization [GB]:   1041.51
  Initialize hartree_potential_storage
  Max. number of atoms included in rho_multipole:            3

  End scf initialization - timings             :  max(cpu_time)    wall_clock(cpu1)
  | Time for scf. initialization                :        0.480 s           0.480 s
  | Boundary condition initialization           :        0.002 s           0.001 s
  | Integration                                 :        0.006 s           0.006 s
  | Solution of K.-S. eqns.                     :        0.001 s           0.000 s
  | Grid partitioning                           :        0.020 s           0.020 s
  | Preloading free-atom quantities on grid     :        0.007 s           0.007 s
  | Free-atom superposition energy              :        0.001 s           0.002 s
  | Total energy evaluation                     :        0.000 s           0.000 s
  | Product basis setup: Total time             :        0.444 s           0.444 s

  Partial memory accounting:
  | Current value for overall tracked memory usage:
  |   Minimum:        0.012 MB (on task  3)
  |   Maximum:        0.814 MB (on task  0)
  |   Average:        0.140 MB
  | Peak value for overall tracked memory usage:
  |   Minimum:        0.628 MB (on task  1 after allocating d_aux_mat)
  |   Maximum:        1.925 MB (on task  2 after allocating ovlp3fn_nosplit%tmploc)
  |   Average:        0.709 MB
  | Largest tracked array allocation so far:
  |   Minimum:        0.615 MB (aux_mat on task  1)
  |   Maximum:        0.956 MB (ovlp3fn_nosplit%dat on task  2)
  |   Average:        0.645 MB
  Note:  These values currently only include a subset of arrays which are explicitly tracked.
  The "true" memory usage will be greater.
------------------------------------------------------------
  Available memory after initialize_scf [GB]:   1041.51
  Available memory after allocating mixing [GB]:   1041.51
  Evaluating new KS density.
  Integration grid: deviation in total charge (<rho> - N_e) =   1.776357E-15

  Time for density update prior                :  max(cpu_time)    wall_clock(cpu1)
  | self-consistency iterative process          :        0.001 s           0.002 s
  Available memory before start of SCF loop [GB]:   1041.51

------------------------------------------------------------
          Begin self-consistency iteration #    1

  Date     :  20240328, Time     :  132833.128
------------------------------------------------------------
  Pulay mixing of updated and previous charge densities.
  Available memory per node after mixing [GB]:   1041.51
  Renormalizing the density to the exact electron count on the 3D integration grid.
  | Formal number of electrons (from input files) :      10.0000000000
  | Integrated number of electrons on 3D grid     :      10.0000000000
  | Charge integration error                      :       0.0000000000
  | Normalization factor for density and gradient :       1.0000000000

  Evaluating partitioned Hartree potential by multipole expansion.
  | Original multipole sum: apparent total charge =   0.667214E-14
  | Sum of charges compensated after spline to logarithmic grids =   0.147893E-06
  | Analytical far-field extrapolation by fixed multipoles:
  | Hartree multipole sum: apparent total charge =   0.683202E-14
  Summing up the Hartree potential.
  Time summed over all CPUs for potential: real work        0.003 s, elapsed        0.003 s
  | RMS charge density error from multipole expansion :   0.137997E-03

  Integrating Hamiltonian matrix: batch-based integration.
  Time summed over all CPUs for integration: real work        0.041 s, elapsed        0.044 s
  Max. memory consumption per node for dm_cols [GB]:      0.00
  Max. memory consumption per node for fock_matrix [GB]:      0.00
  Calculating non-local Hartree-Fock exchange by two-center RI (RI-LVL).
  screening_threshold (crit_val) =  0.000000100000
  Max. allocated memory per node for ovlp3fn_rcv [GB]:      0.00
  Max. allocated memory per node for fock_matrix_row [GB]:      0.00
  Max. memory consumption per node for m_ovlp_fact11 [GB]:      0.00
  Max. memory consumption per node for d_aux_mem [GB]:      0.00
  Max. memory consumption per node for dm_x_o3fn_aux [GB]:      0.00
  Max. allocated memory per node for tmp1/tmp2 [GB]:      0.01
   final impselect vector           6           3           6           1
   Time for autotuning:    2.3458062000000002E-002
  Exact exchange progress report - outermost block loop i_block: 1 ..       3
  |        1         2         3  
 Total ovlp3fn data transfer [GB]   4.5978240668773651E-003
  Full exact exchange energy:     251.826966548068 eV.
  Detailed communication and barrier times:
  | Comm    0:        0.000       0.000       0.000       0.003       0.000       0.000       0.000       0.000       0.000       0.003
  | Comm    1:        0.000       0.000       0.000       0.003       0.000       0.000       0.000       0.000       0.000       0.003
  | Comm    2:        0.000       0.000       0.000       0.003       0.000       0.000       0.000       0.000       0.000       0.003
  | Comm    3:        0.000       0.000       0.000       0.003       0.000       0.000       0.000       0.000       0.000       0.003
  | Comm    4:        0.000       0.000       0.000       0.003       0.000       0.000       0.000       0.000       0.000       0.003
  | Comm    5:        0.000       0.000       0.000       0.003       0.000       0.000       0.000       0.000       0.000       0.003
  | Comm    6:        0.000       0.000       0.000       0.003       0.000       0.000       0.000       0.000       0.000       0.003
  | Comm    7:        0.000       0.000       0.000       0.003       0.000       0.000       0.000       0.000       0.000       0.003
  | Comm    8:        0.000       0.000       0.000       0.003       0.000       0.000       0.000       0.000       0.000       0.003
  | Comm    9:        0.000       0.000       0.000       0.003       0.000       0.000       0.000       0.000       0.000       0.003
  | Comm   10:        0.000       0.000       0.000       0.000       0.000       0.000       0.000       0.000       0.000       0.000
  | Comm   11:        0.000       0.000       0.000       0.000       0.000       0.000       0.000       0.000       0.000       0.000
  | Comm   12:        0.000       0.000       0.000       0.003       0.000       0.000       0.000       0.000       0.000       0.003
  | Comm   13:        0.000       0.000       0.000       0.003       0.000       0.000       0.000       0.000       0.000       0.003
  | Comm   14:        0.000       0.000       0.000       0.003       0.000       0.000       0.000       0.000       0.000       0.003
  | Comm   15:        0.000       0.000       0.000       0.003       0.000       0.000       0.000       0.000       0.000       0.003
  | Comm   16:        0.000       0.000       0.000       0.003       0.000       0.000       0.000       0.000       0.000       0.003
  | Comm   17:        0.000       0.000       0.000       0.003       0.000       0.000       0.000       0.000       0.000       0.003
  | Comm   18:        0.000       0.000       0.000       0.003       0.000       0.000       0.000       0.000       0.000       0.003
  | Comm   19:        0.000       0.000       0.000       0.003       0.000       0.000       0.000       0.000       0.000       0.003
  | Comm   20:        0.000       0.000       0.000       0.003       0.000       0.000       0.000       0.000       0.000       0.003
  | Comm   21:        0.000       0.000       0.000       0.003       0.000       0.000       0.000       0.000       0.000       0.003
  | Comm   22:        0.000       0.000       0.000       0.000       0.000       0.000       0.000       0.000       0.000       0.000
  | Comm   23:        0.000       0.000       0.000       0.000       0.000       0.000       0.000       0.000       0.000       0.000
  | Imbalance    0:        0.000       0.000       0.000       0.000       0.000       0.000       0.000       0.000       0.000       0.000
  | Imbalance    1:        0.000       0.000       0.000       0.000       0.000       0.000       0.000       0.000       0.000       0.004
  | Imbalance    2:        0.000       0.000       0.000       0.000       0.000       0.000       0.000       0.000       0.000       0.004
  | Imbalance    3:        0.000       0.000       0.000       0.001       0.000       0.000       0.001       0.000       0.000       0.004
  | Imbalance    4:        0.000       0.000       0.000       0.001       0.000       0.000       0.001       0.000       0.000       0.004
  | Imbalance    5:        0.000       0.000       0.000       0.001       0.000       0.000       0.001       0.000       0.000       0.004
  | Imbalance    6:        0.000       0.000       0.000       0.001       0.000       0.000       0.001       0.000       0.000       0.004
  | Imbalance    7:        0.000       0.000       0.000       0.001       0.000       0.000       0.001       0.000       0.000       0.004
  | Imbalance    8:        0.000       0.000       0.000       0.001       0.000       0.000       0.001       0.000       0.000       0.004
  | Imbalance    9:        0.000       0.000       0.000       0.001       0.000       0.000       0.001       0.000       0.000       0.004
  | Imbalance   10:        0.000       0.000       0.000       0.000       0.010       0.000       0.001       0.000       0.000       0.000
  | Imbalance   11:        0.000       0.000       0.000       0.000       0.010       0.000       0.001       0.000       0.000       0.000
  | Imbalance   12:        0.000       0.000       0.000       0.000       0.000       0.000       0.000       0.000       0.000       0.000
  | Imbalance   13:        0.000       0.000       0.000       0.000       0.000       0.000       0.000       0.000       0.000       0.003
  | Imbalance   14:        0.000       0.000       0.000       0.000       0.000       0.000       0.000       0.000       0.000       0.003
  | Imbalance   15:        0.000       0.000       0.000       0.001       0.000       0.000       0.000       0.000       0.000       0.003
  | Imbalance   16:        0.000       0.000       0.000       0.001       0.000       0.000       0.000       0.000       0.000       0.003
  | Imbalance   17:        0.000       0.000       0.000       0.001       0.000       0.000       0.000       0.000       0.000       0.003
  | Imbalance   18:        0.000       0.000       0.000       0.001       0.000       0.000       0.000       0.000       0.000       0.003
  | Imbalance   19:        0.000       0.000       0.000       0.001       0.000       0.000       0.000       0.000       0.000       0.003
  | Imbalance   20:        0.000       0.000       0.000       0.001       0.000       0.000       0.000       0.000       0.000       0.003
  | Imbalance   21:        0.000       0.000       0.000       0.001       0.000       0.000       0.000       0.000       0.000       0.003
  | Imbalance   22:        0.000       0.000       0.000       0.000       0.009       0.000       0.000       0.000       0.000       0.000
  | Imbalance   23:        0.000       0.000       0.000       0.000       0.008       0.000       0.000       0.000       0.000       0.000
  Times            DM_x_o3fn   CM_prod_1   CM_prod_2   tmp2_prod        Sync   Imbalance       Other  Total calc
  | Times    0:        0.001       0.002       0.002       0.000       0.006       0.000       0.005       0.016
  | Times    1:        0.000       0.000       0.000       0.000       0.006       0.005       0.004       0.016
  | Times    2:        0.001       0.000       0.000       0.000       0.006       0.005       0.004       0.016
  | Times    3:        0.000       0.000       0.000       0.000       0.006       0.006       0.004       0.016
  | Times    4:        0.000       0.000       0.000       0.000       0.006       0.006       0.004       0.016
  | Times    5:        0.000       0.000       0.000       0.000       0.006       0.006       0.004       0.016
  | Times    6:        0.000       0.000       0.000       0.000       0.006       0.006       0.004       0.016
  | Times    7:        0.000       0.000       0.000       0.000       0.006       0.006       0.004       0.016
  | Times    8:        0.000       0.000       0.000       0.000       0.006       0.006       0.004       0.016
  | Times    9:        0.000       0.000       0.000       0.000       0.006       0.006       0.004       0.016
  | Times   10:        0.000       0.001       0.001       0.000       0.000       0.011       0.004       0.016
  | Times   11:        0.000       0.001       0.001       0.000       0.000       0.011       0.004       0.016
  | Times   12:        0.001       0.002       0.001       0.000       0.005       0.000       0.007       0.016
  | Times   13:        0.000       0.000       0.000       0.000       0.005       0.004       0.006       0.016
  | Times   14:        0.000       0.000       0.000       0.000       0.005       0.004       0.006       0.016
  | Times   15:        0.000       0.000       0.000       0.000       0.005       0.005       0.006       0.016
  | Times   16:        0.000       0.000       0.000       0.000       0.005       0.005       0.006       0.016
  | Times   17:        0.000       0.000       0.000       0.000       0.005       0.005       0.006       0.016
  | Times   18:        0.000       0.000       0.000       0.000       0.005       0.005       0.006       0.016
  | Times   19:        0.000       0.000       0.000       0.000       0.005       0.005       0.006       0.016
  | Times   20:        0.000       0.000       0.000       0.000       0.005       0.005       0.006       0.016
  | Times   21:        0.000       0.000       0.000       0.000       0.005       0.005       0.006       0.016
  | Times   22:        0.000       0.001       0.000       0.000       0.000       0.009       0.006       0.016
  | Times   23:        0.000       0.001       0.001       0.000       0.000       0.009       0.006       0.016
  | Times  sum:        0.003       0.008       0.006       0.001       0.117       0.132       0.126       0.392

  Decomposition of Other based on code block (only on MPI task 0):
  Times             Block #1    Block #2    Block #3    Block #4    Block #5    Block #6    Block #7    Block #8
  | Times    0:        0.000       0.000       0.000       0.000       0.000       0.000       0.001       0.000

  Times             Block #9   Block #10   Block #11   Block #12   Block #13   Block #14   Block #15   Block #16
  | Times    0:        0.000       0.000       0.000       0.002       0.000       0.000       0.000       0.000

  Times            Block Sum    Expected
  | Times    0:        0.004       0.005
 Time for Fock matrix mixing   7.6245000000030316E-005

  Updating Kohn-Sham eigenvalues and eigenvectors using ELSI and the (modified) LAPACK eigensolver.
  Starting LAPACK eigensolver
  Finished Cholesky decomposition
  | Time :     0.000 s
  Finished transformation to standard eigenproblem
  | Time :     0.000 s
  Finished solving standard eigenproblem
  | Time :     0.000 s
  Finished back-transformation of eigenvectors
  | Time :     0.000 s

  Obtaining occupation numbers and electronic chemical potential using ELSI.
  | Note that, for insulating systems, the printed 'chemical potential' value is not uniquely defined.
  | It can be anywhere in the energy gap, as long as it correctly separates occupied and unoccupied states.
  | In systems with a gap, the physically relevant chemical potential is the VBM or HOMO.

  | Chemical potential (Fermi level):    -4.23828587 eV
  Writing Kohn-Sham eigenvalues.

  State    Occupation    Eigenvalue [Ha]    Eigenvalue [eV]
      1       2.00000         -20.835507         -566.96300
      2       2.00000          -1.576603          -42.90156
      3       2.00000          -0.911006          -24.78975
      4       2.00000          -0.806509          -21.94622
      5       2.00000          -0.745208          -20.27813
      6       0.00000           0.105812            2.87928
      7       0.00000           0.183239            4.98619
      8       0.00000           0.333529            9.07579
      9       0.00000           0.394788           10.74273
     10       0.00000           0.422202           11.48871
     11       0.00000           0.511335           13.91412

  Highest occupied state (VBM) at    -20.27813402 eV
  | Occupation number:      2.00000000

  Lowest unoccupied state (CBM) at     2.87927871 eV
  | Occupation number:      0.00000000

  Overall HOMO-LUMO gap:     23.15741274 eV.

  Total energy components:
  | Sum of eigenvalues            :         -49.74966679 Ha       -1353.75731178 eV
  | XC energy correction          :           9.29167353 Ha         252.83930106 eV
  | XC potential correction       :          -0.00000000 Ha          -0.00000000 eV
  | Free-atom electrostatic energy:         -35.52638593 Ha        -966.72214731 eV
  | Hartree energy correction     :          -0.23401722 Ha          -6.36793259 eV
  | Entropy correction            :          -0.00000000 Ha          -0.00000000 eV
  | ---------------------------
  | Total energy                  :         -76.21839641 Ha       -2074.00809061 eV
  | Total energy, T -> 0          :         -76.21839641 Ha       -2074.00809061 eV  <-- do not rely on this value for anything but (periodic) metals
  | Electronic free energy        :         -76.21839641 Ha       -2074.00809061 eV

  Derived energy quantities:
  | Kinetic energy                :          75.80991037 Ha        2062.89261998 eV
  | Electrostatic energy          :        -142.73663325 Ha       -3884.06140953 eV
  | Energy correction for multipole
  | error in Hartree potential    :          -0.00018861 Ha          -0.00513240 eV
  | Sum of eigenvalues per atom                           :        -451.25243726 eV
  | Total energy (T->0) per atom                          :        -691.33603020 eV  <-- do not rely on this value for anything but (periodic) metals
  | Electronic free energy per atom                       :        -691.33603020 eV
  Evaluating new KS density.
  Integration grid: deviation in total charge (<rho> - N_e) =   5.329071E-15

  Self-consistency convergence accuracy:
  | Change of charge density      :  0.3227E+00
  | Change of unmixed KS density  :  0.9071E+01
  | Change of sum of eigenvalues  : -0.1769E+03 eV
  | Change of total energy        : -0.3874E+01 eV


------------------------------------------------------------
  End self-consistency iteration #     1       :  max(cpu_time)    wall_clock(cpu1)
  | Time for this iteration                     :        0.051 s           0.051 s
  | Charge density update                       :        0.001 s           0.002 s
  | Density mixing                              :        0.000 s           0.000 s
  | Hartree multipole update                    :        0.002 s           0.002 s
  | Hartree multipole summation                 :        0.004 s           0.005 s
  | Integration                                 :        0.002 s           0.002 s
  | Fock matrix evaluation                      :        0.040 s           0.040 s
  | Solution of K.-S. eqns.                     :        0.000 s           0.000 s
  | Total energy evaluation                     :        0.000 s           0.000 s

  Partial memory accounting:
  | Current value for overall tracked memory usage:
  |   Minimum:  -114687.699 MB (on task 15)
  |   Maximum:        1.115 MB (on task  0)
  |   Average:   -33450.230 MB
  | Peak value for overall tracked memory usage:
  |   Minimum:        0.628 MB (on task  3 after allocating d_aux_mat)
  |   Maximum:        1.925 MB (on task  2 after allocating ovlp3fn_nosplit%tmploc)
  |   Average:        0.771 MB
  | Largest tracked array allocation so far:
  |   Minimum:        0.615 MB (aux_mat on task  1)
  |   Maximum:        0.956 MB (ovlp3fn_nosplit%dat on task  2)
  |   Average:        0.645 MB
  Note:  These values currently only include a subset of arrays which are explicitly tracked.
  The "true" memory usage will be greater.
------------------------------------------------------------

------------------------------------------------------------
          Begin self-consistency iteration #    2

  Date     :  20240328, Time     :  132833.179
[...]

  Times            Block Sum    Expected
  | Times    0:        0.005       0.006
 Time for Fock matrix mixing   6.3299999999988366E-005

  Updating Kohn-Sham eigenvalues and eigenvectors using ELSI and the (modified) LAPACK eigensolver.
  Starting LAPACK eigensolver
  Finished Cholesky decomposition
  | Time :     0.000 s
  Finished transformation to standard eigenproblem
  | Time :     0.000 s
  Finished solving standard eigenproblem
  | Time :     0.000 s
  Finished back-transformation of eigenvectors
  | Time :     0.000 s

  Obtaining occupation numbers and electronic chemical potential using ELSI.
  | Note that, for insulating systems, the printed 'chemical potential' value is not uniquely defined.
  | It can be anywhere in the energy gap, as long as it correctly separates occupied and unoccupied states.
  | In systems with a gap, the physically relevant chemical potential is the VBM or HOMO.

  | Chemical potential (Fermi level):    -2.26122394 eV
  Highest occupied state (VBM) at    -13.95677571 eV
  | Occupation number:      2.00000000

  Lowest unoccupied state (CBM) at     3.07474142 eV
  | Occupation number:      0.00000000

  Overall HOMO-LUMO gap:     17.03151713 eV.

  Total energy components:
  | Sum of eigenvalues            :         -47.52824017 Ha       -1293.30921798 eV
  | XC energy correction          :           8.91468119 Ha         242.58081766 eV
  | XC potential correction       :          -0.00000000 Ha          -0.00000000 eV
  | Free-atom electrostatic energy:         -35.52638593 Ha        -966.72214731 eV
  | Hartree energy correction     :          -2.00175380 Ha         -54.47049222 eV
  | Entropy correction            :          -0.00000000 Ha          -0.00000000 eV
  | ---------------------------
  | Total energy                  :         -76.14169870 Ha       -2071.92103985 eV
  | Total energy, T -> 0          :         -76.14169870 Ha       -2071.92103985 eV  <-- do not rely on this value for anything but (periodic) metals
  | Electronic free energy        :         -76.14169870 Ha       -2071.92103985 eV

  Derived energy quantities:
  | Kinetic energy                :          75.84942105 Ha        2063.96776024 eV
  | Electrostatic energy          :        -143.07643856 Ha       -3893.30798243 eV
  | Energy correction for multipole
  | error in Hartree potential    :          -0.00153423 Ha          -0.04174849 eV
  | Sum of eigenvalues per atom                           :        -431.10307266 eV
  | Total energy (T->0) per atom                          :        -690.64034662 eV  <-- do not rely on this value for anything but (periodic) metals
  | Electronic free energy per atom                       :        -690.64034662 eV

  Self-consistency convergence accuracy:
  | Change of charge density      :  0.7067E-06
  | Change of unmixed KS density  :  0.2022E-05
  | Change of sum of eigenvalues  :  0.5091E-04 eV
  | Change of total energy        : -0.3981E-06 eV

  Writing Kohn-Sham eigenvalues.

  State    Occupation    Eigenvalue [Ha]    Eigenvalue [eV]
      1       2.00000         -20.587446         -560.21292
      2       2.00000          -1.355892          -36.89569
      3       2.00000          -0.721770          -19.64037
      4       2.00000          -0.586110          -15.94885
      5       2.00000          -0.512902          -13.95678
      6       0.00000           0.112995            3.07474
      7       0.00000           0.188300            5.12391
      8       0.00000           0.383931           10.44730
      9       0.00000           0.433436           11.79438
     10       0.00000           0.515692           14.03269
     11       0.00000           0.578332           15.73722

  Highest occupied state (VBM) at    -13.95677571 eV
  | Occupation number:      2.00000000

  Lowest unoccupied state (CBM) at     3.07474142 eV
  | Occupation number:      0.00000000

  Overall HOMO-LUMO gap:     17.03151713 eV.

  | Chemical Potential                          :    -2.26122394 eV
  | Note that, for insulating systems, the printed 'chemical potential' value is not uniquely defined.
  | It can be anywhere in the energy gap, as long as it correctly separates occupied and unoccupied states.
  | In systems with a gap, the physically relevant chemical potential is the VBM or HOMO.

  Self-consistency cycle converged.


------------------------------------------------------------
  End self-consistency iteration #    18       :  max(cpu_time)    wall_clock(cpu1)
  | Time for this iteration                     :        0.034 s           0.034 s
  | Charge density update                       :        0.000 s           0.000 s
  | Density mixing                              :        0.000 s           0.000 s
  | Hartree multipole update                    :        0.002 s           0.001 s
  | Hartree multipole summation                 :        0.003 s           0.004 s
  | Integration                                 :        0.002 s           0.002 s
  | Fock matrix evaluation                      :        0.026 s           0.026 s
  | Solution of K.-S. eqns.                     :        0.000 s           0.000 s
  | Total energy evaluation                     :        0.000 s           0.000 s

  Partial memory accounting:
  | Current value for overall tracked memory usage:
  |   Minimum:  -950271.698 MB (on task 15)
  |   Maximum:        1.115 MB (on task  0)
  |   Average:  -277162.229 MB
  | Peak value for overall tracked memory usage:
  |   Minimum:        0.628 MB (on task  3 after allocating d_aux_mat)
  |   Maximum:        1.925 MB (on task  2 after allocating ovlp3fn_nosplit%tmploc)
  |   Average:        0.771 MB
  | Largest tracked array allocation so far:
  |   Minimum:        0.615 MB (aux_mat on task  1)
  |   Maximum:        0.956 MB (ovlp3fn_nosplit%dat on task  2)
  |   Average:        0.645 MB
  Note:  These values currently only include a subset of arrays which are explicitly tracked.
  The "true" memory usage will be greater.
------------------------------------------------------------

  Energy and forces in a compact form:
  | Total energy uncorrected      :         -0.207192103985218E+04 eV
  | Total energy corrected        :         -0.207192103985218E+04 eV  <-- do not rely on this value for anything but (periodic) metals
  | Electronic free energy        :         -0.207192103985218E+04 eV

  ------------------------------------ 
  Start decomposition of the XC Energy 
  ------------------------------------ 
  X and C from original XC functional choice 
  Hartree-Fock Energy :         -8.914678492 Ha           -242.580744147 eV
  X Energy            :         -8.914678492 Ha           -242.580744147 eV
  C Energy            :          0.000000000 Ha              0.000000000 eV
  XC Energy w/o HF    :          0.000000000 Ha              0.000000000 eV
  Total XC Energy     :         -8.914678492 Ha           -242.580744147 eV
  ------------------------------------ 
  LDA X and C from self-consistent density 
  X Energy LDA        :         -8.098708630 Ha           -220.377074492 eV
  C Energy LDA        :         -0.660106734 Ha            -17.962418161 eV
  ------------------------------------ 
  End decomposition of the XC Energy 
  ------------------------------------ 

------------------------------------------------------------

  ------------------------------------------------------------
                   Starting Mulliken Analysis
  ------------------------------------------------------------

  Performing Mulliken charge analysis on all atoms.
  Full analysis will be written to separate file 'Mulliken.out'.
  Summary of the per-atom charge analysis:
  |
  |  atom       electrons          charge             l=0             l=1             l=2             l=3
  |     1        8.576739       -0.576739        3.780706        4.768908        0.024430        0.002696
  |     2        0.711632        0.288368        0.633203        0.078428
  |     3        0.711629        0.288371        0.633204        0.078426
  |
  | Total       10.000000        0.000000

  Writing Mulliken decomposition to disk ...

  Mulliken analysis                                       :  max(cpu_time)    wall_clock(cpu1)
  | Time for Mulliken analysis                            :          0.000               0.000
  | Total time for Mulliken analysis                      :          0.000               0.000
------------------------------------------------------------

  ------------------------------------------------------------
                      Starting Cube Output
  ------------------------------------------------------------

  The following cube files will be created:

  --------------------------------------
    Cube file:            1
    cube origin       0.1304      0.5014      1.1180
    cube edge 86      0.1000      0.0000      0.0000
    cube edge 80      0.0000      0.1000      0.0000
    cube edge 80      0.0000      0.0000      0.1000
    cube filename: cube_001_eigenstate_00001_spin_1.cube
  --------------------------------------
    Cube file:            2
    cube origin       0.1304      0.5014      1.1180
    cube edge 86      0.1000      0.0000      0.0000
    cube edge 80      0.0000      0.1000      0.0000
    cube edge 80      0.0000      0.0000      0.1000
    cube filename: cube_002_eigenstate_00002_spin_1.cube
  --------------------------------------
    Cube file:            3
    cube origin       0.1304      0.5014      1.1180
    cube edge 86      0.1000      0.0000      0.0000
    cube edge 80      0.0000      0.1000      0.0000
    cube edge 80      0.0000      0.0000      0.1000
    cube filename: cube_003_eigenstate_00003_spin_1.cube
  --------------------------------------
    Cube file:            4
    cube origin       0.1304      0.5014      1.1180
    cube edge 86      0.1000      0.0000      0.0000
    cube edge 80      0.0000      0.1000      0.0000
    cube edge 80      0.0000      0.0000      0.1000
    cube filename: cube_004_eigenstate_00004_spin_1.cube
  --------------------------------------
    Cube file:            5
    cube origin       0.1304      0.5014      1.1180
    cube edge 86      0.1000      0.0000      0.0000
    cube edge 80      0.0000      0.1000      0.0000
    cube edge 80      0.0000      0.0000      0.1000
    cube filename: cube_005_eigenstate_00005_spin_1.cube
  --------------------------------------

  * WARNING: The output  of  the cube file is in 1/Ang^3  or
  * WARNING: 1/Ang^3/2,  but  the cube voxel  definition  is
  * WARNING: in atomic units. Be careful when postprocessing
  * WARNING: Consistent units can be chosen in control.in by
  *               cube_content_unit  bohr

 
   Starting cube            1
   Cube will be divided in
     9 minicubes along the first,
     8 minicubes along the second, and
     8 minicubes along the third cube edge
   Dividing grid points on processors
   Cube file 1 finished.

 
   Starting cube            2
   Cube will be divided in
     9 minicubes along the first,
     8 minicubes along the second, and
     8 minicubes along the third cube edge
   Dividing grid points on processors
   Cube file 2 finished.

 
   Starting cube            3
   Cube will be divided in
     9 minicubes along the first,
     8 minicubes along the second, and
     8 minicubes along the third cube edge
   Dividing grid points on processors
   Cube file 3 finished.

 
   Starting cube            4
   Cube will be divided in
     9 minicubes along the first,
     8 minicubes along the second, and
     8 minicubes along the third cube edge
   Dividing grid points on processors
   Cube file 4 finished.

 
   Starting cube            5
   Cube will be divided in
     9 minicubes along the first,
     8 minicubes along the second, and
     8 minicubes along the third cube edge
   Dividing grid points on processors
   Cube file 5 finished.

  Cube output                                             :  max(cpu_time)    wall_clock(cpu1)
  | Total time for cube output                            :          2.320               2.320
------------------------------------------------------------

------------------------------------------------------------------------------
  Final output of selected total energy values:

  The following output summarizes some interesting total energy values
  at the end of a run (AFTER all relaxation, molecular dynamics, etc.).

  | Total energy of the DFT / Hartree-Fock s.c.f. calculation      :          -2071.921039852 eV
  | Final zero-broadening corrected energy (caution - metals only) :          -2071.921039852 eV
  | For reference only, the value of 1 Hartree used in FHI-aims is :             27.211384500 eV

  Before relying on these values, please be sure to understand exactly which
  total energy value is referred to by a given number. Different objects may
  all carry the same name 'total energy'. Definitions:

  Total energy of the DFT / Hartree-Fock s.c.f. calculation:
  | Note that this energy does not include ANY quantities calculated after the
  | s.c.f. cycle, in particular not ANY RPA, MP2, etc. many-body perturbation terms.

  Final zero-broadening corrected energy:
  | For metallic systems only, a broadening of the occupation numbers at the Fermi
  | level can be extrapolated back to zero broadening by an electron-gas inspired
  | formula. For all systems that are not real metals, this value can be
  | meaningless and should be avoided.

------------------------------------------------------------------------------
  Methods described in the following list of references were used in this FHI-aims run.
  If you publish the results, please make sure to cite these reference if they apply.
  FHI-aims is an academic code, and for our developers (often, Ph.D. students
  and postdocs), scientific credit in the community is essential.
  Thank you for helping us!

  For any use of FHI-aims, please cite:

    Volker Blum, Ralf Gehrke, Felix Hanke, Paula Havu, Ville Havu,
    Xinguo Ren, Karsten Reuter, and Matthias Scheffler
    'Ab initio molecular simulations with numeric atom-centered orbitals'
    Computer Physics Communications 180, 2175-2196 (2009)
    http://doi.org/10.1016/j.cpc.2009.06.022


  For Hartree-Fock, hybrid functionals, or many-body perturbation theory used in your run, please cite:

    Xinguo Ren, Patrick Rinke, Volker Blum, Juergen Wieferink, Alex Tkatchenko,
    Andrea Sanfilippo, Karsten Reuter, and Matthias Scheffler,
    'Resolution-of-identity approach to Hartree-Fock, hybrid density functionals,
    RPA, MP2, and GW with numeric atom-centered orbital basis functions'
    New Journal of Physics 14, 053020 (2012).
    http://doi.org/10.1088/1367-2630/14/5/053020


  The ELSI infrastructure was used in your run to solve the Kohn-Sham electronic structure.
  Please check out http://elsi-interchange.org to learn more.
  If scalability is important for your project, please acknowledge ELSI by citing:

    V. W-z. Yu, F. Corsetti, A. Garcia, W. P. Huhn, M. Jacquelin, W. Jia,
    B. Lange, L. Lin, J. Lu, W. Mi, A. Seifitokaldani, A. Vazquez-Mayagoitia,
    C. Yang, H. Yang, and V. Blum
    'ELSI: A unified software interface for Kohn-Sham electronic structure solvers'
    Computer Physics Communications 222, 267-285 (2018).
    http://doi.org/10.1016/j.cpc.2017.09.007


  For the real-space grid partitioning and parallelization used in this calculation, please cite:

    Ville Havu, Volker Blum, Paula Havu, and Matthias Scheffler,
    'Efficient O(N) integration for all-electron electronic structure calculation'
    'using numerically tabulated basis functions'
    Journal of Computational Physics 228, 8367-8379 (2009).
    http://doi.org/10.1016/j.jcp.2009.08.008


  The high-level electronic structure method used in your calculation
  employed our efficient localized resolution of identity for the Coulomb operator.
  Some calculations, especially large-scale hybrid density functional theory,
  are only possible thanks to this development. For this feature, please cite:

    Arvid Ihrig, Juergen Wieferink, Igor Ying Zhang, Matti Ropo, Xinguo Ren,
    Patrick Rinke, Matthias Scheffler, and Volker Blum,
    'Accurate localized resolution of identity approach for linear-scaling
    hybrid density functionals and for many-body perturbation theory'
    New Journal of Physics 117, 093020 (2015).
    http://doi.org/10.1088/1367-2630/17/9/093020

  Of course, there are many other important community references, e.g., those cited in the
  above references. Our list is limited to references that describe implementations in the
  FHI-aims code. The reason is purely practical (length of this list) - please credit others as well.

 * A warning regarding the cube file format (cube_content_unit legacy)
 * was issued above. The output is Angstrom-based but the cube voxel
 * definition is in atomic units. Please check carefully.

------------------------------------------------------------
          Leaving FHI-aims.
          Date     :  20240328, Time     :  132836.000

          Computational steps:
          | Number of self-consistency cycles          :           18
          | Number of SCF (re)initializations          :            1

          Detailed time accounting                     :  max(cpu_time)    wall_clock(cpu1)
          | Total time                                  :        3.534 s           3.534 s
          | Preparation time                            :        0.116 s           0.111 s
          | Boundary condition initalization            :        0.002 s           0.001 s
          | Grid partitioning                           :        0.020 s           0.020 s
          | Preloading free-atom quantities on grid     :        0.007 s           0.007 s
          | Free-atom superposition energy              :        0.001 s           0.002 s
          | Total time for integrations                 :        0.040 s           0.036 s
          | Product basis setup: Total time             :        0.444 s           0.444 s
          | Total time evaluating exchange matrix       :        0.381 s           0.382 s
          | Total time for solution of K.-S. equations  :        0.007 s           0.008 s
          | Total time for density update               :        0.024 s           0.024 s
          | Total time for mixing                       :        0.004 s           0.002 s
          | Total time for Hartree multipole update     :        0.028 s           0.032 s
          | Total time for Hartree multipole sum        :        0.058 s           0.059 s
          | Total time for total energy evaluation      :        0.002 s           0.001 s
          | Total time for scaled ZORA corrections      :        0.000 s           0.000 s
          | Total time for Mulliken analysis            :        0.000 s           0.000 s
          | Total time for cube output                  :        2.320 s           2.320 s

          Partial memory accounting:
          | Residual value for overall tracked memory usage across tasks: ************ MB (should be 0.000000 MB)
          |
          | Largest tracked array allocation:
          |   Minimum:        0.615 MB (aux_mat on task  1)
          |   Maximum:        0.956 MB (ovlp3fn_nosplit%dat on task  2)
          |   Average:        0.645 MB
          |
          | Because the residual tracked memory usage was not zero, the peak value for overall
          | tracked memory usage was not output, as it is probably incorrect.  This is likely due
          | to a missing aims_deallocate statement in the source code, which should be otherwise
          | harmless.
          |
          Note:  These values currently only include a subset of arrays which are explicitly tracked.
          The "true" memory usage will be greater.

          Have a nice day.
------------------------------------------------------------
