------------------------------------------------------------
          Invoking FHI-aims ...

          When using FHI-aims, please cite the following reference:

            Volker Blum, Ralf Gehrke, Felix Hanke, Paula Havu,
            Ville Havu, Xinguo Ren, Karsten Reuter, and Matthias Scheffler,
            'Ab Initio Molecular Simulations with Numeric Atom-Centered Orbitals',
            Computer Physics Communications 180, 2175-2196 (2009)

          In addition, many other developments in FHI-aims are likely important for
          your particular application. If so, please cite them. A partial list of references
          is written at the end of this file. Thank you for giving credit to the authors
          of these developments.

          For general information about FHI-aims please find us at

            https://fhi-aims.org

          Online tutorials can be found at

            https://fhi-aims-club.gitlab.io/tutorials/tutorials-overview/

          For any questions about FHI-aims, please visit our slack channel at

            https://fhi-aims.slack.com

          and our main development and support site at

            https://aims-git.rz-berlin.mpg.de .

          The latter site, in particular, has a wiki to collect information, as well
          as an issue tracker to log discussions, suggest improvements, and report issues
          or bugs. https://aims-git.rz-berlin.mpg.de is also the main development site
          of the project and all new and updated code versions can be obtained there.
          Please send an email to aims-coordinators@fhi-berlin.mpg.de and we will add
          you to these sites. They are for you and everyone is welcome there.

------------------------------------------------------------



  Date     :  20240710, Time     :  215744.272
  Time zero on CPU 1             :   0.288056000000000E+00  s.
  Internal wall clock time zero  :           489880664.272  s.

  FHI-aims created a unique identifier for this run for later identification
  aims_uuid : 530736AB-B629-4C82-A073-C2899DA51B87

  Build configuration of the current instance of FHI-aims
  -------------------------------------------------------
  FHI-aims version      : 240605
  Commit number         : b001b2e18
  CMake host system     : Linux-6.5.0-41-generic
  CMake version         : 3.22.1
  Fortran compiler      : /opt/intel/oneapi/mpi/2021.12/bin/mpiifort (IntelLLVM) version 2024.1.0
  Fortran compiler flags: -fc=ifx -O3 -ip -fp-model precise
  C compiler            : /opt/intel/oneapi/mpi/2021.12/bin/mpiicc (IntelLLVM) version 2024.1.0
  C compiler flags      : -cc=icx -O3 -ip -fp-model precise -std=gnu99
  C++ compiler          : /opt/intel/oneapi/mpi/2021.12/bin/mpiicpc (IntelLLVM) version 2024.1.0
  C++ compiler flags    : -cxx=icpx -O3 -ip -fp-model precise -std=c++11
  HIP compiler          :
  HIP compiler flags    :
  HIP GPU arch          :
  Using MPI
  Using ScaLAPACK
  Using LibXC
  Using i-PI
  Using RLSY
  Linking against: /opt/intel/oneapi/mkl/2024.1/lib/intel64/libmkl_intel_lp64.so
                   /opt/intel/oneapi/mkl/2024.1/lib/intel64/libmkl_sequential.so
                   /opt/intel/oneapi/mkl/2024.1/lib/intel64/libmkl_core.so
                   /opt/intel/oneapi/mkl/2024.1/lib/intel64/libmkl_blacs_intelmpi_lp64.so
                   /opt/intel/oneapi/mkl/2024.1/lib/intel64/libmkl_scalapack_lp64.so
                   /opt/intel/oneapi/mkl/2024.1/lib/intel64/libmkl_core.so

  Using       24 parallel tasks.
  Task        0 on host RSL-arvutus reporting.
  Task        1 on host RSL-arvutus reporting.
  Task        2 on host RSL-arvutus reporting.
  Task        3 on host RSL-arvutus reporting.
  Task        4 on host RSL-arvutus reporting.
  Task        5 on host RSL-arvutus reporting.
  Task        6 on host RSL-arvutus reporting.
  Task        7 on host RSL-arvutus reporting.
  Task        8 on host RSL-arvutus reporting.
  Task        9 on host RSL-arvutus reporting.
  Task       10 on host RSL-arvutus reporting.
  Task       11 on host RSL-arvutus reporting.
  Task       12 on host RSL-arvutus reporting.
  Task       13 on host RSL-arvutus reporting.
  Task       14 on host RSL-arvutus reporting.
  Task       15 on host RSL-arvutus reporting.
  Task       16 on host RSL-arvutus reporting.
  Task       17 on host RSL-arvutus reporting.
  Task       18 on host RSL-arvutus reporting.
  Task       19 on host RSL-arvutus reporting.
  Task       20 on host RSL-arvutus reporting.
  Task       21 on host RSL-arvutus reporting.
  Task       22 on host RSL-arvutus reporting.
  Task       23 on host RSL-arvutus reporting.

  Memory overcommitment is allowed on your operating system.

  Obtaining array dimensions for all initial allocations:
  
  -----------------------------------------------------------------------
  Parsing control.in (first pass over file, find array dimensions only).
  The contents of control.in will be repeated verbatim below
  unless switched off by setting 'verbatim_writeout .false.' .
  in the first line of control.in .
  -----------------------------------------------------------------------
  
  xc              pbe
  relativistic    atomic_zora scalar
  k_grid          6 6 6
  relax_geometry  bfgs 5e-3
  relax_unit_cell full
  ################################################################################
  #
  #  FHI-aims code project
  #  VB, Fritz-Haber Institut, 2009
  #
  #  Suggested "light" defaults for Ti atom (to be pasted into control.in file)
  #  Be sure to double-check any results obtained with these settings for post-processing,
  #  e.g., with the "tight" defaults and larger basis sets.
  #
  ################################################################################
    species        Ti
  #     global species definitions
      nucleus             22
      mass                47.867
  #
      l_hartree           4
  #
      cut_pot             3.5          1.5  1.0
      basis_dep_cutoff    1e-4
  #
      radial_base         48 5.0
      radial_multiplier   1
      angular_grids       specified
        division   0.5171   50
        division   0.9824  110
        division   1.2917  194
        division   1.4940  302
  #      division   1.6934  434
  #      division   1.8425  590
  #      division   2.1901  770
  #      division   2.2896  974
  #      division   2.8244 1202
  #      outer_grid  974
        outer_grid  302
  ################################################################################
  #
  #  Definition of "minimal" basis
  #
  ################################################################################
  #     valence basis states
      valence      4  s   2.
      valence      3  p   6.
      valence      3  d   2.
  #     ion occupancy
      ion_occ      4  s   1.
      ion_occ      3  p   6.
      ion_occ      3  d   1.
  ################################################################################
  #
  #  Suggested additional basis functions. For production calculations,
  #  uncomment them one after another (the most important basis functions are
  #  listed first).
  #
  #  Constructed for dimers: 1.6 A, 1.85 A, 2.5 A, 3.25 A, 4.25 A
  #
  ################################################################################
  #  "First tier" - improvements: -396.25 meV to -19.41 meV
       hydro 4 f 8
       hydro 3 d 2.7
       ionic 4 p auto
  #     hydro 5 g 11.6
       ionic 4 s auto
  #  "Second tier" - improvements: -16.30 meV to -2.03 meV
  #     hydro 3 d 4.4
  #     hydro 6 h 16
  #     hydro 4 f 9.4
  #     hydro 4 p 4.5
  #     hydro 1 s 0.5
  #  "Third tier" - improvements: -6.28 meV to -0.37 meV
  #     hydro 4 d 6.4
  #     hydro 4 f 10
  #     hydro 5 g 12
  #     hydro 2 p 1.7
  #     hydro 6 h 16.4
  #     hydro 4 s 3.8
  #  Further basis functions: -0.45 meV and smaller improvements
  #     hydro 3 d 8.8
  #     hydro 5 p 18
  #     hydro 4 f 22.4
  #     hydro 5 f 7.2  # -0.16 meV
  #     hydro 3 d 2.1  # -0.11 meV
  #     hydro 5 g 7.4  # -0.09 meV
  ################################################################################
  #
  #  FHI-aims code project
  #  VB, Fritz-Haber Institut, 2009
  #
  #  Suggested "light" defaults for O atom (to be pasted into control.in file)
  #  Be sure to double-check any results obtained with these settings for post-processing,
  #  e.g., with the "tight" defaults and larger basis sets.
  #
  ################################################################################
    species        O
  #     global species definitions
      nucleus             8
      mass                15.9994
  #
      l_hartree           4
  #
      cut_pot             3.5  1.5  1.0
      basis_dep_cutoff    1e-4
  #
      radial_base         36 5.0
      radial_multiplier   1
       angular_grids specified
        division   0.2659   50
        division   0.4451  110
        division   0.6052  194
        division   0.7543  302
  #      division   0.8014  434
  #      division   0.8507  590
  #      division   0.8762  770
  #      division   0.9023  974
  #      division   1.2339 1202
  #      outer_grid 974
        outer_grid 302
  ################################################################################
  #
  #  Definition of "minimal" basis
  #
  ################################################################################
  #     valence basis states
      valence      2  s   2.
      valence      2  p   4.
  #     ion occupancy
      ion_occ      2  s   1.
      ion_occ      2  p   3.
  ################################################################################
  #
  #  Suggested additional basis functions. For production calculations,
  #  uncomment them one after another (the most important basis functions are
  #  listed first).
  #
  #  Constructed for dimers: 1.0 A, 1.208 A, 1.5 A, 2.0 A, 3.0 A
  #
  ################################################################################
  #  "First tier" - improvements: -699.05 meV to -159.38 meV
       hydro 2 p 1.8
       hydro 3 d 7.6
       hydro 3 s 6.4
  #  "Second tier" - improvements: -49.91 meV to -5.39 meV
  #     hydro 4 f 11.6
  #     hydro 3 p 6.2
  #     hydro 3 d 5.6
  #     hydro 5 g 17.6
  #     hydro 1 s 0.75
  #  "Third tier" - improvements: -2.83 meV to -0.50 meV
  #     ionic 2 p auto
  #     hydro 4 f 10.8
  #     hydro 4 d 4.7
  #     hydro 2 s 6.8
  #  "Fourth tier" - improvements: -0.40 meV to -0.12 meV
  #     hydro 3 p 5
  #     hydro 3 s 3.3
  #     hydro 5 g 15.6
  #     hydro 4 f 17.6
  #     hydro 4 d 14
  # Further basis functions - -0.08 meV and below
  #     hydro 3 s 2.1
  #     hydro 4 d 11.6
  #     hydro 3 p 16
  #     hydro 2 s 17.2
  
  -----------------------------------------------------------------------
  Completed first pass over input file control.in .
  -----------------------------------------------------------------------
  
  
  -----------------------------------------------------------------------
  Parsing geometry.in (first pass over file, find array dimensions only).
  The contents of geometry.in will be repeated verbatim below
  unless switched off by setting 'verbatim_writeout .false.' .
  in the first line of geometry.in .
  -----------------------------------------------------------------------
  
  lattice_vector 4.594000 0.000000 0.000000
  lattice_vector 0.000000 4.594000 0.000000
  lattice_vector 0.000000 0.000000 2.958000
  
  atom_frac 0.000000 0.000000 0.000000 Ti
  atom_frac 0.500000 0.500000 0.500000 Ti
  atom_frac 0.305000 0.305000 0.000000 O
  atom_frac 0.695000 0.695000 0.000000 O
  atom_frac 0.305000 0.695000 0.500000 O
  atom_frac 0.695000 0.305000 0.500000 O
  
  -----------------------------------------------------------------------
  Completed first pass over input file geometry.in .
  -----------------------------------------------------------------------
  

  Basic array size parameters:
  | Number of species                 :        2
  | Number of atoms                   :        6
  | Number of lattice vectors         :        3
  | Max. basis fn. angular momentum   :        3
  | Max. atomic/ionic basis occupied n:        4
  | Max. number of basis fn. types    :        3
  | Max. radial fns per species/type  :        7
  | Max. logarithmic grid size        :     1383
  | Max. radial integration grid size :       48
  | Max. angular integration grid size:      302
  | Max. angular grid division number :        8
  | Radial grid for Hartree potential :     1383
  | Number of spin channels           :        1

------------------------------------------------------------
          Reading file control.in.
------------------------------------------------------------
  XC: Using PBE gradient-corrected functionals.
  Scalar relativistic treatment of kinetic energy: on-site free-atom approximation to ZORA.
  Found k-point grid:         6         6         6
  Geometry relaxation: Modified BFGS - TRM (trust radius method) for lattice optimization.
  Convergence accuracy for geometry relaxation: Maximum force <   0.500000E-02 eV/A.
 
  Reading configuration options for species Ti                  .
  | Found nuclear charge :  22.0000
  | Found atomic mass :    47.8670000000000      amu
  | Found l_max for Hartree potential  :   4
  | Found cutoff potl. onset [A], width [A], scale factor :    3.50000    1.50000    1.00000
  | Threshold for basis-dependent cutoff potential is   0.100000E-03
  | Found data for basic radial integration grid :    48 points, outermost radius =    5.000 A
  | Found multiplier for basic radial grid :   1
  | Found angular grid specification: user-specified.
  | Specified grid contains     5 separate shells.
  | Check grid settings after all constraints further below.
  | Found free-atom valence shell :  4 s   2.000
  | Found free-atom valence shell :  3 p   6.000
  | Found free-atom valence shell :  3 d   2.000
  | Found free-ion valence shell :  4 s   1.000
  | Found free-ion valence shell :  3 p   6.000
  | Found free-ion valence shell :  3 d   1.000
  | Found hydrogenic basis function :  4 f   8.000
  | Found hydrogenic basis function :  3 d   2.700
  | Found ionic basis function :  4 p , default cutoff radius.
  | Found ionic basis function :  4 s , default cutoff radius.
 | Encountered keyword species, ending the description of species Ti                  .
  Species Ti                  : Missing cutoff potential type.
  Defaulting to exp(1/x)/(1-x)^2 type cutoff potential.
  Species Ti: No 'logarithmic' tag. Using default grid for free atom:
  | Default logarithmic grid data [bohr] : 0.1000E-03 0.1000E+03 0.1012E+01
  | Will include ionic basis functions of  2.0-fold positive Ti                   ion.
  Species Ti: On-site basis accuracy parameter (for Gram-Schmidt orthonormalisation) not specified.
  Using default value basis_acc =  0.1000000E-03.
  Species Ti                  : Using default innermost maximum threshold i_radial=  2 for radial functions.
  Species Ti                  : Default cutoff onset for free atom density etc. : 0.35000000E+01 AA.
  Species Ti                  : Basic radial grid will be enhanced according to radial_multiplier =   1, to contain    48 grid points.
 
  Reading configuration options for species O                   .
  | Found nuclear charge :   8.0000
  | Found atomic mass :    15.9994000000000      amu
  | Found l_max for Hartree potential  :   4
  | Found cutoff potl. onset [A], width [A], scale factor :    3.50000    1.50000    1.00000
  | Threshold for basis-dependent cutoff potential is   0.100000E-03
  | Found data for basic radial integration grid :    36 points, outermost radius =    5.000 A
  | Found multiplier for basic radial grid :   1
  | Found angular grid specification: user-specified.
  | Specified grid contains     5 separate shells.
  | Check grid settings after all constraints further below.
  | Found free-atom valence shell :  2 s   2.000
  | Found free-atom valence shell :  2 p   4.000
  | Found free-ion valence shell :  2 s   1.000
  | Found free-ion valence shell :  2 p   3.000
  | Found hydrogenic basis function :  2 p   1.800
  | Found hydrogenic basis function :  3 d   7.600
  | Found hydrogenic basis function :  3 s   6.400
  Species O                   : Missing cutoff potential type.
  Defaulting to exp(1/x)/(1-x)^2 type cutoff potential.
  Species O : No 'logarithmic' tag. Using default grid for free atom:
  | Default logarithmic grid data [bohr] : 0.1000E-03 0.1000E+03 0.1012E+01
  Species O : On-site basis accuracy parameter (for Gram-Schmidt orthonormalisation) not specified.
  Using default value basis_acc =  0.1000000E-03.
  Species O                   : Using default innermost maximum threshold i_radial=  2 for radial functions.
  Species O                   : Default cutoff onset for free atom density etc. : 0.35000000E+01 AA.
  Species O                   : Basic radial grid will be enhanced according to radial_multiplier =   1, to contain    36 grid points.
 
  Finished reading input file 'control.in'.
 
------------------------------------------------------------


------------------------------------------------------------
          Reading geometry description geometry.in.
------------------------------------------------------------
  | The smallest distance between any two atoms is         1.26689494 AA.
  | The first atom of this pair is atom number                      2 .
  | The second atom of this pair is atom number                     6 .
  | Wigner-Seitz cell of the first atom image           0     1     0 .
  | (The Wigner-Seitz cell of the second atom is 0 0 0  by definition.)

  Symmetry information by spglib:
  | Precision set to  0.1E-04
  | Number of Operations  : 8
  | Space group           : 65
  | International         : Cmmm
  | Schoenflies           : D2h^19
  Input structure read successfully.
  The structure contains        6 atoms,  and a total of         76.000 electrons.

  Input geometry:
  | Unit cell:
  |        4.59400000        0.00000000        0.00000000
  |        0.00000000        4.59400000        0.00000000
  |        0.00000000        0.00000000        2.95800000
  | Atomic structure:
  |       Atom                x [A]            y [A]            z [A]
  |    1: Species Ti            0.00000000        0.00000000        0.00000000
  |    2: Species Ti            2.29700000        2.29700000        1.47900000
  |    3: Species O             1.40117000        1.40117000        0.00000000
  |    4: Species O             3.19283000        3.19283000        0.00000000
  |    5: Species O             1.40117000        3.19283000        1.47900000
  |    6: Species O             3.19283000        1.40117000        1.47900000

  Lattice parameters for 3D lattice (in Angstroms) :     4.594000    4.594000    2.958000
  Angle(s) between unit vectors (in degrees)       :    90.000000   90.000000   90.000000


  Quantities derived from the lattice vectors (in Angstrom^-1):
  | Reciprocal lattice vector 1:  1.367694  0.000000  0.000000
  | Reciprocal lattice vector 2:  0.000000  1.367694  0.000000
  | Reciprocal lattice vector 3:  0.000000  0.000000  2.124133
  | Unit cell volume                               :   0.624281E+02  Angstrom^3

  Fractional coordinates:
                         L1                L2                L3
       atom_frac         0.00000000        0.00000000        0.00000000  Ti
       atom_frac         0.50000000        0.50000000        0.50000000  Ti
       atom_frac         0.30500000        0.30500000        0.00000000  O
       atom_frac         0.69500000        0.69500000        0.00000000  O
       atom_frac         0.30500000        0.69500000        0.50000000  O
       atom_frac         0.69500000        0.30500000        0.50000000  O

  Slab Identifier: This seems to be a bulk system.
 
  Finished reading input file 'geometry.in'.
 

 
  Consistency checks for stacksize environment parameter are next.
 
  | Maximum stacksize for task 0: unlimited
  | Maximum stacksize for task 1: unlimited
  | Maximum stacksize for task 2: unlimited
  | Maximum stacksize for task 3: unlimited
  | Maximum stacksize for task 4: unlimited
  | Maximum stacksize for task 5: unlimited
  | Maximum stacksize for task 6: unlimited
  | Maximum stacksize for task 7: unlimited
  | Maximum stacksize for task 8: unlimited
  | Maximum stacksize for task 9: unlimited
  | Maximum stacksize for task 10: unlimited
  | Maximum stacksize for task 11: unlimited
  | Maximum stacksize for task 12: unlimited
  | Maximum stacksize for task 13: unlimited
  | Maximum stacksize for task 14: unlimited
  | Maximum stacksize for task 15: unlimited
  | Maximum stacksize for task 16: unlimited
  | Maximum stacksize for task 17: unlimited
  | Maximum stacksize for task 18: unlimited
  | Maximum stacksize for task 19: unlimited
  | Maximum stacksize for task 20: unlimited
  | Maximum stacksize for task 21: unlimited
  | Maximum stacksize for task 22: unlimited
  | Maximum stacksize for task 23: unlimited
  | Current stacksize for task 0: unlimited
  | Current stacksize for task 1: unlimited
  | Current stacksize for task 2: unlimited
  | Current stacksize for task 3: unlimited
  | Current stacksize for task 4: unlimited
  | Current stacksize for task 5: unlimited
  | Current stacksize for task 6: unlimited
  | Current stacksize for task 7: unlimited
  | Current stacksize for task 8: unlimited
  | Current stacksize for task 9: unlimited
  | Current stacksize for task 10: unlimited
  | Current stacksize for task 11: unlimited
  | Current stacksize for task 12: unlimited
  | Current stacksize for task 13: unlimited
  | Current stacksize for task 14: unlimited
  | Current stacksize for task 15: unlimited
  | Current stacksize for task 16: unlimited
  | Current stacksize for task 17: unlimited
  | Current stacksize for task 18: unlimited
  | Current stacksize for task 19: unlimited
  | Current stacksize for task 20: unlimited
  | Current stacksize for task 21: unlimited
  | Current stacksize for task 22: unlimited
  | Current stacksize for task 23: unlimited
 
  Consistency checks for the contents of control.in are next.
 
  MPI_IN_PLACE appears to work with this MPI implementation.
  | Keeping use_mpi_in_place .true. (see manual).
  Target number of points in a grid batch is not set. Defaulting to  100
  Method for grid partitioning is not set. Defaulting to parallel hash+maxmin partitioning.
  Batch size limit is not set. Defaulting to    200
  By default, will store active basis functions for each batch.
  If in need of memory, prune_basis_once .false. can be used to disable this option.
  communication_type for Hartree potential was not specified.
  Defaulting to calc_hartree .
  Defaulting to Pulay charge density mixer.
  Pulay mixer: Number of relevant iterations not set.
  Defaulting to    8 iterations.
  Pulay mixer: Number of initial linear mixing iterations not set.
  Defaulting to    0 iterations.
  Work space size for distributed Hartree potential not set.
  Defaulting to   0.200000E+03 MB.
  Mixing parameter for charge density mixing has not been set.
  Using default: charge_mix_param =     0.0500.
  The mixing parameter will be adjusted in iteration number     2 of each s.c.f. cycle (i.e., each geometry step).
  Algorithm-dependent basis array size parameters:
  | n_max_pulay                         :        8
  Maximum number of self-consistency iterations not provided.
  Presetting  1000 iterations.
  Presetting      1001 iterations before the initial mixing cycle
  is restarted anyway using the sc_init_iter criterion / keyword.
  Presetting a factor      1.000 between actual scf density residual
  and density convergence criterion sc_accuracy_rho below which sc_init_iter
  takes no effect.
 * No s.c.f. convergence criteria (sc_accuracy_*) were provided in control.in.
 * The run will proceed with a reasonable default guess, but please check whether.
 * the s.c.f. cycles seem to take too much or too little time.
  No maximum number of relaxation steps, defaulting to     1000
  Default initial Hessian is Lindh matrix (thres = 15.00) plus  0.200000E+01 eV/A^2 times unity.
  No maximum energy tolerance for TRM/BFGS moves, defaulting to   0.150000E-02
  Maximum energy tolerance by which TRM/BFGS trajectory may increase over multiple steps:   0.300000E-02
  No harmonic length scale. Defaulting to   0.250000E-01 A.
  No trust radius initializer. Defaulting to   0.200000E+00 A.
  Unit cell relaxation: Unit cell will be relaxed fully.
  Unit cell relaxation: Analytical stress will be used.
  Analytical stress will be computed.
  Analytical stress calculation: Only the upper triangle is calculated.
                                 Final output is symmetrized.
  Analytical stress calculation: scf convergence accuracy of stress not set.
                                 Analytical stress self-consistency will not be checked explicitly.
                                 Be sure to set other criteria like sc_accuracy_rho tight enough.
  Forces evaluation will include force correction term due to incomplete self-consistency (default).
 * Notice: The s.c.f. convergence criterion sc_accuracy_rho was not provided.
 * We used to stop in this case, and ask the user to provide reasonable
 * scf convergence criteria. However, this led some users to employ criteria
 * that led to extremely long run times, e.g., for simple relaxation.
 * We now preset a default value for sc_accuracy_rho if it is not set.
 * You may still wish to check if this setting is too tight or too loose for your needs.
 * Based on n_atoms and forces and force-correction status, FHI-aims chose sc_accuracy_rho =  0.100000E-05 .
  Force calculation: scf convergence accuracy of forces not set.
  Defaulting to 'sc_accuracy_forces not_checked'.
  Handling of forces: Unphysical translation and rotation will be removed from forces.
  No accuracy limit for integral partition fn. given. Defaulting to  0.1000E-14.
  No threshold value for u(r) in integrations given. Defaulting to  0.1000E-05.
  No occupation type (smearing scheme) given. Defaulting to Gaussian broadening, width =  0.1000E-01 eV.
  The width will be adjusted in iteration number     2 of each s.c.f. cycle (i.e., each geometry step).
  No accuracy for occupation numbers given. Defaulting to  0.1000E-12.
  No threshold value for occupation numbers given. Defaulting to  0.0000E+00.
  No accuracy for fermi level given. Defaulting to  0.1000E-19.
  Maximum # of iterations to find E_F not set. Defaulting to  200.
  Preferred method for the eigenvalue solver ('KS_method') not specified in 'control.in'.
  Defaulting to serial version, LAPACK (via ELSI), since more k-points than CPUs available.
  Will not use alltoall communication since running on < 1024 CPUs.
  Threshold for basis singularities not set.
  Default threshold for basis singularities:  0.1000E-04
  partition_type (choice of integration weights) for integrals was not specified.
  | Using a version of the partition function of Stratmann and coworkers ('stratmann_sparse').
  | At each grid point, the set of atoms used to build the partition table is smoothly restricted to
  | only those atoms whose free-atom density would be non-zero at that grid point.
  Partitioning for Hartree potential was not defined. Using partition_type for integrals.
  | Adjusted default value of keyword multip_moments_threshold to:       0.10000000E-11
  | This value may affect high angular momentum components of the Hartree potential in periodic systems.
  Spin handling was not defined in control.in. Defaulting to unpolarized case.
  No q(lm)/r^(l+1) cutoff set for long-range Hartree potential.
  | Using default value of  0.100000E-09 .
  | Verify using the multipole_threshold keyword.
  Defaulting to new monopole extrapolation.
  Density update method: automatic selection selected.
  Using density matrix based charge density update.
  Using density matrix based charge density update.
  Using packed matrix style: index .
  Geometry relaxation: A file "geometry.in.next_step" is written out by default after each step.
  | This file contains the geometry of the current relaxation step as well as
  | the current Hessian matrix needed to restart the relaxation algorithm.
  | If you do not want part or all of this information, use the keywords
  | "write_restart_geometry" or "hessian_to_restart_geometry" to switch the output off.
  Defaulting to use time-reversal symmetry for k-point grid.
  Charge integration errors on the 3D integration grid will be compensated
  by explicit normalization and distribution of residual charges.
  Use the "compensate_multipole_errors" flag to change this behaviour.
  Set 'collect_eigenvectors' to be '.true.' for all serial calculations. This is mandatory.
  Set 'collect_eigenvectors' to be '.true.' for KS_method lapack_fast and serial.
  Found potential conflicts with setting 'use_local_index' for this calculation. Will not set it.
 
  Consistency checks for the contents of geometry.in are next.
 

  Range separation radius for Ewald summation (hartree_convergence_parameter):      3.02465203 bohr.
  Number of empty states per atom not set in control.in - providing a guess from actual geometry.
  | Total number of empty states used during s.c.f. cycle:       23
  If you use a very high smearing, use empty_states (per atom!) in control.in to increase this value.

  Structure-dependent array size parameters: 
  | Maximum number of distinct radial functions  :       17
  | Maximum number of basis functions            :      118
  | Number of Kohn-Sham states (occupied + empty):       61
------------------------------------------------------------
  After read_input_data [GB]:   1045.70

  Performing system and environment tests:
  *** Environment variable OMP_NUM_THREADS is not set
  *** For performance reasons you might want to set it to 1
  | Checking for ScaLAPACK...
  | Testing pdtran()...
  | All pdtran() tests passed.
  After prepare_system [GB]:   1045.57

------------------------------------------------------------
          Preparing all fixed parts of the calculation.
------------------------------------------------------------
  Determining machine precision:
    2.225073858507201E-308
  Setting up grids for atomic and cluster calculations.

  Creating wave function, potential, and density for free atoms.
  Runtime choices for atomic solver:
  | atomic solver xc        : PBE
  | compute density gradient: 1
  | compute kinetic density : F

  Species: Ti

  List of occupied orbitals and eigenvalues:
    n    l              occ      energy [Ha]    energy [eV]
    1    0           2.0000      -179.959082     -4896.9358
    2    0           2.0000       -19.727662      -536.8170
    3    0           2.0000        -2.283029       -62.1244
    4    0           2.0000        -0.148384        -4.0377
    2    1           6.0000       -16.317278      -444.0157
    3    1           6.0000        -1.409348       -38.3503
    3    2           2.0000        -0.139340        -3.7916


  Species: O

  List of occupied orbitals and eigenvalues:
    n    l              occ      energy [Ha]    energy [eV]
    1    0           2.0000       -18.926989      -515.0296
    2    0           2.0000        -0.880247       -23.9527
    2    1           4.0000        -0.331514        -9.0210


  Adding cutoff potential to free-atom effective potential.
  Creating fixed part of basis set: Ionic, confined, hydrogenic.
 
  Ti                   ion:

  List of free ionic orbitals and eigenvalues:
    n    l      energy [Ha]    energy [eV]
    1    0      -180.819616     -4920.3521
    2    0       -20.608761      -560.7929
    3    0        -3.115729       -84.7833
    4    0        -0.697188       -18.9715
    2    1       -17.196209      -467.9327
    3    1        -2.231296       -60.7167
    3    2        -0.911363       -24.7995


  List of ionic basis orbitals and eigenvalues:
    n    l      energy [Ha]    energy [eV]    outer radius [A]
    4    1        -0.517739       -14.0884       4.592117
    4    0        -0.696824       -18.9615       4.536321

 
  Ti                   hydrogenic:
 
  List of hydrogenic basis orbitals: 
    n    l      effective z      eigenvalue [eV]  inner max. [A]     outer max. [A]     outer radius [A]   
    4    3         8.000000       -54.4222           1.059019           1.059019           4.267343
    3    2         2.700000       -10.7798           1.726925           1.726925           4.592117
 
 
  O                    hydrogenic:
 
  List of hydrogenic basis orbitals: 
    n    l      effective z      eigenvalue [eV]  inner max. [A]     outer max. [A]     outer radius [A]   
    2    1         1.800000       -10.9749           1.164242           1.164242           4.578029
    3    2         7.600000       -87.3180           0.624125           0.624125           3.251020
    3    0         6.400000       -61.9207           0.061167           1.081902           4.001998
 
  Creating atomic-like basis functions for current effective potential.

  Species Ti                  :

  List of atomic basis orbitals and eigenvalues:
    n    l      energy [Ha]    energy [eV]    outer radius [A]
    1    0      -179.959082     -4896.9358       0.490254
    2    0       -19.727662      -536.8170       1.491292
    3    0        -2.283029       -62.1244       4.014314
    4    0        -0.148384        -4.0377       4.592117
    2    1       -16.317278      -444.0157       1.585290
    3    1        -1.409348       -38.3503       4.267343
    3    2        -0.139340        -3.7916       4.536321


  Species O                   :

  List of atomic basis orbitals and eigenvalues:
    n    l      energy [Ha]    energy [eV]    outer radius [A]
    1    0       -18.926989      -515.0296       1.415765
    2    0        -0.880247       -23.9527       4.413171
    2    1        -0.331514        -9.0210       4.522403

  Assembling full basis from fixed parts.
  | Species Ti :   atomic orbital   1 s accepted.
  | Species Ti :   atomic orbital   2 s accepted.
  | Species Ti :   atomic orbital   3 s accepted.
  | Species Ti :    ionic orbital   4 s accepted.
  | Species Ti :   atomic orbital   4 s accepted.
  | Species Ti :   atomic orbital   2 p accepted.
  | Species Ti :   atomic orbital   3 p accepted.
  | Species Ti :    ionic orbital   4 p accepted.
  | Species Ti :   atomic orbital   3 d accepted.
  | Species Ti :    hydro orbital   3 d accepted.
  | Species Ti :    hydro orbital   4 f accepted.
  | Species O :   atomic orbital   1 s accepted.
  | Species O :    hydro orbital   3 s accepted.
  | Species O :   atomic orbital   2 s accepted.
  | Species O :   atomic orbital   2 p accepted.
  | Species O :    hydro orbital   2 p accepted.
  | Species O :    hydro orbital   3 d accepted.
 
  Basis size parameters after reduction:
  | Total number of radial functions:       17
  | Total number of basis functions :      118
 
  Per-task memory consumption for arrays in subroutine allocate_ext:
  |           6.022728MB.
  Testing on-site integration grid accuracy.
  |  Species  Function  <phi|h_atom|phi> (log., in eV)  <phi|h_atom|phi> (rad., in eV)
           1        1              -4896.9357674450              -4896.9322830202
           1        2               -536.8170048508               -536.8169722333
           1        3                -62.1243896260                -62.1243889283
           1        4                 -3.2653235630                 -3.2692838808
           1        5                  6.7987747276                  6.5460721883 ***
           1        6               -444.0157161949               -444.0157165810
           1        7                -38.3503235548                -38.3503234963
           1        8                  0.2923930877                  0.2745948116
           1        9                 -3.7933400649                 -3.7959244177
           1       10                  6.3288803616                  6.2510614929 ***
           1       11                 27.8451455747                 27.8452636416
           2       12               -515.0295626295               -515.0294562738
           2       13                 15.1698434419                 15.1699322204
           2       14                -21.6038822678                -21.6039118105
           2       15                 -9.0211123393                 -9.0212703513
           2       16                  8.3047696391                  8.2854840999
           2       17                 45.8428042125                 45.8427461222
 * Note: Onsite integrals marked "***" above are less accurate than
 * onsite_accuracy_threshold =    0.03000 eV. Usually, this is harmless.
 * When in doubt, tighten the "radial" and/or "radial_multiplier" flags to check.

  Preparing densities etc. for the partition functions (integrals / Hartree potential).

  Preparations completed.
  max(cpu_time)          :      0.206 s.
  Wall clock time (cpu1) :      0.204 s.
------------------------------------------------------------
  After prepare_scf [GB]:   1045.19

  Initializing index lists of integration centers etc. from given atomic structure:
  Mapping all atomic coordinates to central unit cell.

  Initializing the k-points
  Using symmetry for reducing the k-points
  | k-points reduced from:      216 to      112
  | Number of k-points                             :       112
  The eigenvectors in the calculations are COMPLEX.
  | K-points in task   0:         4
  | K-points in task   1:         5
  | K-points in task   2:         5
  | K-points in task   3:         5
  | K-points in task   4:         5
  | K-points in task   5:         5
  | K-points in task   6:         5
  | K-points in task   7:         5
  | K-points in task   8:         5
  | K-points in task   9:         5
  | K-points in task  10:         5
  | K-points in task  11:         5
  | K-points in task  12:         5
  | K-points in task  13:         5
  | K-points in task  14:         5
  | K-points in task  15:         5
  | K-points in task  16:         5
  | K-points in task  17:         4
  | K-points in task  18:         4
  | K-points in task  19:         4
  | K-points in task  20:         4
  | K-points in task  21:         4
  | K-points in task  22:         4
  | K-points in task  23:         4
  | Number of basis functions in the Hamiltonian integrals :      2803
  | Number of basis functions in a single unit cell        :       118
  | Number of centers in hartree potential         :      1194
  | Number of centers in hartree multipole         :       795
  | Number of centers in electron density summation:       568
  | Number of centers in basis integrals           :       613
  | Number of centers in integrals                 :       197
  | Number of centers in hamiltonian               :       582
  | Consuming        248 KiB for k_phase.
  | Number of super-cells (origin) [n_cells]                     :         891
  | Number of super-cells (after PM_index) [n_cells]             :         142
  | Number of super-cells in hamiltonian [n_cells_in_hamiltonian]:         142
  | Size of matrix packed + index [n_hamiltonian_matrix_size] :      272239
  After initialize_bc_dependent_lists [GB]:   1045.13

------------------------------------------------------------
          Begin self-consistency loop: Initialization.

          Date     :  20240710, Time     :  215744.547
------------------------------------------------------------

  Initializing relaxation algorithms.
  Finished initialization of distributed Hessian storage.
  | Global dimension:        27
  | BLACS block size:         2
  | Number of workers:       14

  Available memory per node after initialize_hartree_non_periodic_ewald [GB]:   1045.13
  | Estimated reciprocal-space cutoff momentum G_max:         3.12346377 bohr^-1 .
  | Reciprocal lattice points for long-range Hartree potential:     208
  Available memory per node after initialize_recip_hartree_potential [GB]:   1045.13
  Available memory per node after initialize_scalapack [GB]:   1045.13
  Available memory per node after aims_elsi_init_scf [GB]:   1045.13
  Available memory per node after initialize_fixed_grids [GB]:   1045.13
  Partitioning the integration grid into batches with parallel hashing+maxmin method.
  | Number of batches:      491
  | Maximal batch size:     115
  | Minimal batch size:      56
  | Average batch size:      78.061
  | Standard deviation of batch sizes:      12.658

  Integration load balanced across    24 MPI tasks.
  Work distribution over tasks is as follows:
  Task     0 has       1555 integration points.
  Task     1 has       1631 integration points.
  Task     2 has       1641 integration points.
  Task     3 has       1562 integration points.
  Task     4 has       1603 integration points.
  Task     5 has       1544 integration points.
  Task     6 has       1554 integration points.
  Task     7 has       1570 integration points.
  Task     8 has       1625 integration points.
  Task     9 has       1616 integration points.
  Task    10 has       1603 integration points.
  Task    11 has       1596 integration points.
  Task    12 has       1616 integration points.
  Task    13 has       1561 integration points.
  Task    14 has       1631 integration points.
  Task    15 has       1564 integration points.
  Task    16 has       1606 integration points.
  Task    17 has       1619 integration points.
  Task    18 has       1604 integration points.
  Task    19 has       1618 integration points.
  Task    20 has       1565 integration points.
  Task    21 has       1611 integration points.
  Task    22 has       1611 integration points.
  Task    23 has       1622 integration points.
  Available memory per node after partition_grid [GB]:   1045.13
  Initializing partition tables, free-atom densities, potentials, etc. across the integration grid (initialize_grid_storage).
  | initialize_grid_storage: Actual outermost partition radius vs. multipole_radius_free
  | (-- VB: in principle, multipole_radius_free should be larger, hence this output)
  | Species        1: Confinement radius =              4.999999999999999 AA, multipole_radius_free =              5.002391649902235 AA.
  | Species        1: outer_partition_radius set to              5.002391649902235 AA .
  | Species        2: Confinement radius =              4.999999999999999 AA, multipole_radius_free =              5.048384829883283 AA.
  | Species        2: outer_partition_radius set to              5.048384829883283 AA .
  | The sparse table of interatomic distances needs       1595.53 kbyte instead of      3006.15 kbyte of memory.
  | Net number of integration points:    38328
  | of which are non-zero points    :    31144
  | Numerical average free-atom electrostatic potential    :    -18.17617952 eV
  Available memory per node after initialize_grid_storage_p1 [GB]:   1045.09
  Renormalizing the initial density to the exact electron count on the 3D integration grid.
  | Initial density: Formal number of electrons (from input files) :      76.0000000000
  | Integrated number of electrons on 3D grid     :      75.9997063041
  | Charge integration error                      :      -0.0002936959
  | Normalization factor for density and gradient :       1.0000038644
  Renormalizing the free-atom superposition density to the exact electron count on the 3D integration grid.
  | Formal number of electrons (from input files) :      76.0000000000
  | Integrated number of electrons on 3D grid     :      75.9997063041
  | Charge integration error                      :      -0.0002936959
  | Normalization factor for density and gradient :       1.0000038644
  Obtaining max. number of non-zero basis functions in each batch (get_n_compute_maxes).
  | Maximal number of non-zero basis functions:      871 in task     0
  | Maximal number of non-zero basis functions:      846 in task     1
  | Maximal number of non-zero basis functions:      865 in task     2
  | Maximal number of non-zero basis functions:      882 in task     3
  | Maximal number of non-zero basis functions:      830 in task     4
  | Maximal number of non-zero basis functions:      805 in task     5
  | Maximal number of non-zero basis functions:      784 in task     6
  | Maximal number of non-zero basis functions:      816 in task     7
  | Maximal number of non-zero basis functions:      806 in task     8
  | Maximal number of non-zero basis functions:      838 in task     9
  | Maximal number of non-zero basis functions:      876 in task    10
  | Maximal number of non-zero basis functions:      837 in task    11
  | Maximal number of non-zero basis functions:      836 in task    12
  | Maximal number of non-zero basis functions:      804 in task    13
  | Maximal number of non-zero basis functions:      857 in task    14
  | Maximal number of non-zero basis functions:      859 in task    15
  | Maximal number of non-zero basis functions:      902 in task    16
  | Maximal number of non-zero basis functions:      895 in task    17
  | Maximal number of non-zero basis functions:      883 in task    18
  | Maximal number of non-zero basis functions:      895 in task    19
  | Maximal number of non-zero basis functions:      877 in task    20
  | Maximal number of non-zero basis functions:      817 in task    21
  | Maximal number of non-zero basis functions:      813 in task    22
  | Maximal number of non-zero basis functions:      890 in task    23
  Available memory per node after get_n_compute_maxes_p1 [GB]:   1045.08
  Allocating        0.439 MB for KS_eigenvector_complex
  Available memory per node after allocate_matrices [GB]:   1045.07
  Available memory per node after init_comm_sparse_local_matrix_scalapack [GB]:   1045.07
  Integrating Hamiltonian matrix: batch-based integration.
  Time summed over all CPUs for integration: real work        2.564 s, elapsed        2.698 s
  Available memory per node after integrate hamiltonian matrix [GB]:   1044.81
  Integrating overlap matrix.
  Time summed over all CPUs for integration: real work        1.737 s, elapsed        1.838 s
  Available memory per node after integrate ovlp matrix [GB]:   1044.71
  Available memory per node after ASI_callbacks invoke [GB]:   1044.71
  Available memory per node after save_overlap_scalapack [GB]:   1044.71

  Updating Kohn-Sham eigenvalues and eigenvectors using ELSI and the (modified) LAPACK eigensolver.
  Singularity check in k-point 24, task 0 (analysis for other k-points/tasks may follow below):
  Overlap matrix is not singular
  | Lowest and highest eigenvalues :  0.4844E-03,  0.8140E+01
  Finished singularity check of overlap matrix
  | Time :     0.002 s
  Starting LAPACK eigensolver
  Finished Cholesky decomposition
  | Time :     0.001 s
  Finished transformation to standard eigenproblem
  | Time :     0.000 s
  Finished solving standard eigenproblem
  | Time :     0.002 s
  Finished back-transformation of eigenvectors
  | Time :     0.001 s

  Obtaining occupation numbers and electronic chemical potential using ELSI.
  | Note that, for insulating systems, the printed 'chemical potential' value is not uniquely defined.
  | It can be anywhere in the energy gap, as long as it correctly separates occupied and unoccupied states.
  | In systems with a gap, the physically relevant chemical potential is the VBM or HOMO.

  | Chemical potential (Fermi level):    -7.28127422 eV
  Available memory per node after advance_KS_solution [GB]:   1044.71
  Writing Kohn-Sham eigenvalues.
  K-point:       1 at    0.000000    0.000000    0.000000 (in units of recip. lattice)

  State    Occupation    Eigenvalue [Ha]    Eigenvalue [eV]
      1       2.00000        -180.020698        -4898.61244
      2       2.00000        -179.964873        -4897.09335
      3       2.00000         -19.795616         -538.66611
      4       2.00000         -19.734063         -536.99117
      5       2.00000         -19.195684         -522.34114
      6       2.00000         -19.195682         -522.34108
      7       2.00000         -19.041045         -518.13320
      8       2.00000         -19.041045         -518.13320
      9       2.00000         -16.389407         -445.97845
     10       2.00000         -16.381593         -445.76582
     11       2.00000         -16.381262         -445.75683
     12       2.00000         -16.323673         -444.18973
     13       2.00000         -16.323617         -444.18822
     14       2.00000         -16.323419         -444.18284
     15       2.00000          -2.471608          -67.25587
     16       2.00000          -2.297986          -62.53137
     17       2.00000          -1.855859          -50.50048
     18       2.00000          -1.530631          -41.65059
     19       2.00000          -1.526612          -41.54122
     20       2.00000          -1.437306          -39.11107
     21       2.00000          -1.423923          -38.74691
     22       2.00000          -1.420578          -38.65588
     23       2.00000          -1.150697          -31.31205
     24       2.00000          -1.067788          -29.05600
     25       2.00000          -1.014237          -27.59878
     26       2.00000          -0.921336          -25.07082
     27       2.00000          -0.714068          -19.43078
     28       2.00000          -0.683026          -18.58608
     29       2.00000          -0.675788          -18.38912
     30       2.00000          -0.583437          -15.87614
     31       2.00000          -0.546937          -14.88291
     32       2.00000          -0.546589          -14.87344
     33       2.00000          -0.534627          -14.54794
     34       2.00000          -0.469453          -12.77445
     35       2.00000          -0.469415          -12.77343
     36       2.00000          -0.461530          -12.55887
     37       2.00000          -0.457161          -12.43999
     38       2.00000          -0.269207           -7.32550
     39       0.00000          -0.251762           -6.85079
     40       0.00000          -0.223124           -6.07151
     41       0.00000          -0.168691           -4.59030
     42       0.00000          -0.150893           -4.10601
     43       0.00000          -0.146186           -3.97793
     44       0.00000          -0.141091           -3.83927
     45       0.00000          -0.075126           -2.04429
     46       0.00000          -0.070598           -1.92107
     47       0.00000          -0.058823           -1.60066
     48       0.00000          -0.044349           -1.20679
     49       0.00000           0.079664            2.16776
     50       0.00000           0.083687            2.27725
     51       0.00000           0.085682            2.33152
     52       0.00000           0.165040            4.49097
     53       0.00000           0.236182            6.42684
     54       0.00000           0.290807            7.91325
     55       0.00000           0.312049            8.49128
     56       0.00000           0.370841           10.09111
     57       0.00000           0.418531           11.38881
     58       0.00000           0.615074           16.73702
     59       0.00000           0.676983           18.42165
     60       0.00000           0.693537           18.87211
     61       0.00000           0.696407           18.95020

  What follows are estimated values for band gap, HOMO, LUMO, etc.
  | They are estimated on a discrete k-point grid and not necessarily exact.
  | For converged numbers, create a DOS and/or band structure plot on a denser k-grid.

  Highest occupied state (VBM) at     -7.32550425 eV (relative to internal zero)
  | Occupation number:      2.00000000
  | K-point:       1 at    0.000000    0.000000    0.000000 (in units of recip. lattice)

  Lowest unoccupied state (CBM) at    -7.07295186 eV (relative to internal zero)
  | Occupation number:      0.00000000
  | K-point:      88 at    0.500000    0.500000    0.000000 (in units of recip. lattice)

  ESTIMATED overall HOMO-LUMO gap:      0.25255239 eV between HOMO at k-point 1 and LUMO at k-point 88
  | This appears to be an indirect band gap.
  | Smallest direct gap :      0.30390560 eV for k_point 88 at    0.500000    0.500000    0.000000 (in units of recip. lattice)
  The gap value is above 0.2 eV. Unless you are using a very sparse k-point grid,
  this system is most likely an insulator or a semiconductor.
  Calculating total energy contributions from superposition of free atom densities.

  Total energy components:
  | Sum of eigenvalues            :       -1197.39600940 Ha      -32582.80321045 eV
  | XC energy correction          :        -118.68850972 Ha       -3229.67867373 eV
  | XC potential correction       :         153.49934545 Ha        4176.92970959 eV
  | Free-atom electrostatic energy:        -850.80121301 Ha      -23151.47894030 eV
  | Hartree energy correction     :           0.00000000 Ha           0.00000000 eV
  | Entropy correction            :          -0.00000000 Ha          -0.00000000 eV
  | ---------------------------
  | Total energy                  :       -2013.38638668 Ha      -54787.03111489 eV
  | Total energy, T -> 0          :       -2013.38638668 Ha      -54787.03111489 eV  <-- do not rely on this value for anything but (periodic) metals
  | Electronic free energy        :       -2013.38638668 Ha      -54787.03111489 eV

  Derived energy quantities:
  | Kinetic energy                :        2028.75459088 Ha       55205.22122848 eV
  | Electrostatic energy          :       -3923.45246783 Ha     -106762.57366964 eV
  | Energy correction for multipole
  | error in Hartree potential    :           0.00000000 Ha           0.00000000 eV
  | Sum of eigenvalues per atom                           :       -5430.46720174 eV
  | Total energy (T->0) per atom                          :       -9131.17185248 eV  <-- do not rely on this value for anything but (periodic) metals
  | Electronic free energy per atom                       :       -9131.17185248 eV
  Initialize hartree_potential_storage
  Max. number of atoms included in rho_multipole:            6

  End scf initialization - timings             :  max(cpu_time)    wall_clock(cpu1)
  | Time for scf. initialization                :        0.356 s           0.356 s
  | Boundary condition initialization           :        0.028 s           0.028 s
  | Relaxation initialization                   :        0.005 s           0.005 s
  | Integration                                 :        0.204 s           0.204 s
  | Solution of K.-S. eqns.                     :        0.036 s           0.036 s
  | Grid partitioning                           :        0.016 s           0.016 s
  | Preloading free-atom quantities on grid     :        0.086 s           0.086 s
  | Free-atom superposition energy              :        0.009 s           0.009 s
  | Total energy evaluation                     :        0.000 s           0.000 s

  Partial memory accounting:
  | Current value for overall tracked memory usage:
  |   Minimum:        5.682 MB (on task 17)
  |   Maximum:        5.792 MB (on task  1)
  |   Average:        5.755 MB
  | Peak value for overall tracked memory usage:
  |   Minimum:       12.563 MB (on task  6 after allocating wave)
  |   Maximum:       14.394 MB (on task 16 after allocating wave)
  |   Average:       13.522 MB
  | Largest tracked array allocation so far:
  |   Minimum:        4.689 MB (hamiltonian_shell on task  6)
  |   Maximum:        6.207 MB (hamiltonian_shell on task 16)
  |   Average:        5.512 MB
  Note:  These values currently only include a subset of arrays which are explicitly tracked.
  The "true" memory usage will be greater.
------------------------------------------------------------
  Available memory after initialize_scf [GB]:   1044.71
  Available memory after allocating mixing [GB]:   1044.70
  Evaluating new KS density using the density matrix
  Evaluating density matrix
  Time summed over all CPUs for getting density from density matrix: real work        5.355 s, elapsed        5.663 s
  Integration grid: deviation in total charge (<rho> - N_e) =  -1.818989E-12

  Time for density update prior                :  max(cpu_time)    wall_clock(cpu1)
  | self-consistency iterative process          :        0.243 s           0.243 s
  Available memory before start of SCF loop [GB]:   1044.59

------------------------------------------------------------
          Begin self-consistency iteration #    1

  Date     :  20240710, Time     :  215745.146
------------------------------------------------------------
  Pulay mixing of updated and previous charge densities.
  Available memory per node after mixing [GB]:   1044.59
  Renormalizing the density to the exact electron count on the 3D integration grid.
  | Formal number of electrons (from input files) :      76.0000000000
  | Integrated number of electrons on 3D grid     :      76.0000000000
  | Charge integration error                      :      -0.0000000000
  | Normalization factor for density and gradient :       1.0000000000

  Evaluating partitioned Hartree potential by multipole expansion.
  | Original multipole sum: apparent total charge =   0.778857E-13
  | Sum of charges compensated after spline to logarithmic grids =   0.202101E-06
  | Analytical far-field extrapolation by fixed multipoles:
  | Hartree multipole sum: apparent total charge =   0.777996E-13
  Summing up the Hartree potential.
  Time summed over all CPUs for potential: real work        0.024 s, elapsed        0.025 s
  | RMS charge density error from multipole expansion :   0.145980E-02
  | Average real-space part of the electrostatic potential :      0.09392799 eV

  Integrating Hamiltonian matrix: batch-based integration.
  Time summed over all CPUs for integration: real work        2.525 s, elapsed        2.663 s

  Updating Kohn-Sham eigenvalues and eigenvectors using ELSI and the (modified) LAPACK eigensolver.
  Starting LAPACK eigensolver
  Finished Cholesky decomposition
  | Time :     0.000 s
  Finished transformation to standard eigenproblem
  | Time :     0.001 s
  Finished solving standard eigenproblem
  | Time :     0.002 s
  Finished back-transformation of eigenvectors
  | Time :     0.000 s

  Obtaining occupation numbers and electronic chemical potential using ELSI.
  | Note that, for insulating systems, the printed 'chemical potential' value is not uniquely defined.
  | It can be anywhere in the energy gap, as long as it correctly separates occupied and unoccupied states.
  | In systems with a gap, the physically relevant chemical potential is the VBM or HOMO.

  | Chemical potential (Fermi level):    -6.88436744 eV
  Writing Kohn-Sham eigenvalues.
  K-point:       1 at    0.000000    0.000000    0.000000 (in units of recip. lattice)

  State    Occupation    Eigenvalue [Ha]    Eigenvalue [eV]
      1       2.00000        -180.023707        -4898.69430
      2       2.00000        -179.992782        -4897.85279
      3       2.00000         -19.791123         -538.54386
      4       2.00000         -19.771001         -537.99630
      5       2.00000         -19.143348         -520.91700
      6       2.00000         -19.143347         -520.91697
      7       2.00000         -18.997431         -516.94640
      8       2.00000         -18.997431         -516.94639
      9       2.00000         -16.381110         -445.75267
     10       2.00000         -16.380914         -445.74735
     11       2.00000         -16.380871         -445.74619
     12       2.00000         -16.363773         -445.28091
     13       2.00000         -16.356888         -445.09358
     14       2.00000         -16.356636         -445.08672
     15       2.00000          -2.449179          -66.64556
     16       2.00000          -2.340522          -63.68884
     17       2.00000          -1.828771          -49.76340
     18       2.00000          -1.511612          -41.13305
     19       2.00000          -1.506195          -40.98565
     20       2.00000          -1.475479          -40.14983
     21       2.00000          -1.464662          -39.85549
     22       2.00000          -1.462598          -39.79932
     23       2.00000          -1.124504          -30.59932
     24       2.00000          -1.046826          -28.48559
     25       2.00000          -0.993560          -27.03615
     26       2.00000          -0.901977          -24.54406
     27       2.00000          -0.691975          -18.82961
     28       2.00000          -0.658197          -17.91044
     29       2.00000          -0.656672          -17.86894
     30       2.00000          -0.567652          -15.44660
     31       2.00000          -0.522470          -14.21714
     32       2.00000          -0.522320          -14.21305
     33       2.00000          -0.513876          -13.98328
     34       2.00000          -0.449389          -12.22850
     35       2.00000          -0.448741          -12.21085
     36       2.00000          -0.438826          -11.94106
     37       2.00000          -0.437757          -11.91196
     38       2.00000          -0.270612           -7.36373
     39       0.00000          -0.244716           -6.65907
     40       0.00000          -0.219078           -5.96143
     41       0.00000          -0.188652           -5.13347
     42       0.00000          -0.175361           -4.77182
     43       0.00000          -0.175053           -4.76344
     44       0.00000          -0.161216           -4.38691
     45       0.00000          -0.074618           -2.03045
     46       0.00000          -0.065175           -1.77351
     47       0.00000          -0.048582           -1.32197
     48       0.00000          -0.029838           -0.81193
     49       0.00000           0.079595            2.16590
     50       0.00000           0.081472            2.21696
     51       0.00000           0.088510            2.40847
     52       0.00000           0.169963            4.62493
     53       0.00000           0.232772            6.33406
     54       0.00000           0.294238            8.00663
     55       0.00000           0.321373            8.74500
     56       0.00000           0.376432           10.24323
     57       0.00000           0.407390           11.08564
     58       0.00000           0.633805           17.24671
     59       0.00000           0.689023           18.74926
     60       0.00000           0.705632           19.20121
     61       0.00000           0.715552           19.47117

  What follows are estimated values for band gap, HOMO, LUMO, etc.
  | They are estimated on a discrete k-point grid and not necessarily exact.
  | For converged numbers, create a DOS and/or band structure plot on a denser k-grid.

  Highest occupied state (VBM) at     -6.92931313 eV (relative to internal zero)
  | Occupation number:      2.00000000
  | K-point:      16 at    0.000000    0.500000    0.500000 (in units of recip. lattice)

  Lowest unoccupied state (CBM) at    -6.76249894 eV (relative to internal zero)
  | Occupation number:      0.00000000
  | K-point:       2 at    0.000000    0.000000    0.166667 (in units of recip. lattice)

  ESTIMATED overall HOMO-LUMO gap:      0.16681419 eV between HOMO at k-point 16 and LUMO at k-point 2
  | This appears to be an indirect band gap.
  | Smallest direct gap :      0.24738210 eV for k_point 2 at    0.000000    0.000000    0.166667 (in units of recip. lattice)
  The gap value is rather small. This may be a metal or a small-gap semiconductor.
  Since we use a finite k-point grid, a DOS and/or band structure plot is required
  for an unambiguous assignment.

  Total energy components:
  | Sum of eigenvalues            :       -1196.82812493 Ha      -32567.35028780 eV
  | XC energy correction          :        -118.76889374 Ha       -3231.86603426 eV
  | XC potential correction       :         153.60290838 Ha        4179.74780019 eV
  | Free-atom electrostatic energy:        -850.80121301 Ha      -23151.47894030 eV
  | Hartree energy correction     :          -0.43970947 Ha         -11.96510356 eV
  | Entropy correction            :          -0.00000000 Ha          -0.00000000 eV
  | ---------------------------
  | Total energy                  :       -2013.23503278 Ha      -54782.91256573 eV
  | Total energy, T -> 0          :       -2013.23503278 Ha      -54782.91256573 eV  <-- do not rely on this value for anything but (periodic) metals
  | Electronic free energy        :       -2013.23503278 Ha      -54782.91256573 eV

  Derived energy quantities:
  | Kinetic energy                :        2029.46876441 Ha       55224.65487912 eV
  | Electrostatic energy          :       -3923.93490344 Ha     -106775.70141059 eV
  | Energy correction for multipole
  | error in Hartree potential    :           0.00149798 Ha           0.04076218 eV
  | Sum of eigenvalues per atom                           :       -5427.89171463 eV
  | Total energy (T->0) per atom                          :       -9130.48542762 eV  <-- do not rely on this value for anything but (periodic) metals
  | Electronic free energy per atom                       :       -9130.48542762 eV
  Evaluating new KS density using the density matrix
  Evaluating density matrix
  Time summed over all CPUs for getting density from density matrix: real work        5.235 s, elapsed        5.580 s
  Integration grid: deviation in total charge (<rho> - N_e) =  -1.904255E-12

  Self-consistency convergence accuracy:
  | Change of charge density      :  0.8387E+00
  | Change of unmixed KS density  :  0.7221E+02
  | Change of sum of eigenvalues  :  0.1545E+02 eV
  | Change of total energy        :  0.4119E+01 eV


------------------------------------------------------------
  End self-consistency iteration #     1       :  max(cpu_time)    wall_clock(cpu1)
  | Time for this iteration                     :        0.408 s           0.408 s
  | Charge density update                       :        0.238 s           0.238 s
  | Density mixing                              :        0.000 s           0.000 s
  | Hartree multipole update                    :        0.001 s           0.001 s
  | Hartree multipole summation                 :        0.027 s           0.027 s
  | Integration                                 :        0.115 s           0.115 s
  | Solution of K.-S. eqns.                     :        0.027 s           0.026 s
  | Total energy evaluation                     :        0.000 s           0.001 s

  Partial memory accounting:
  | Current value for overall tracked memory usage:
  |   Minimum:        6.548 MB (on task  0)
  |   Maximum:        6.706 MB (on task  2)
  |   Average:        6.644 MB
  | Peak value for overall tracked memory usage:
  |   Minimum:       15.474 MB (on task  6 after allocating gradient_basis_wave)
  |   Maximum:       17.642 MB (on task 16 after allocating gradient_basis_wave)
  |   Average:       16.628 MB
  | Largest tracked array allocation so far:
  |   Minimum:        4.689 MB (hamiltonian_shell on task  6)
  |   Maximum:        6.207 MB (hamiltonian_shell on task 16)
  |   Average:        5.512 MB
  Note:  These values currently only include a subset of arrays which are explicitly tracked.
  The "true" memory usage will be greater.
------------------------------------------------------------

------------------------------------------------------------
          Begin self-consistency iteration #    2

  Date     :  20240710, Time     :  215745.554
------------------------------------------------------------
  Pulay mixing of updated and previous charge densities.
  Available memory per node after mixing [GB]:   1044.55
  Renormalizing the density to the exact electron count on the 3D integration grid.
  | Formal number of electrons (from input files) :      76.0000000000
  | Integrated number of electrons on 3D grid     :      76.0000000000
  | Charge integration error                      :      -0.0000000000
  | Normalization factor for density and gradient :       1.0000000000

  Evaluating partitioned Hartree potential by multipole expansion.
  | Original multipole sum: apparent total charge =   0.109841E-12
  | Sum of charges compensated after spline to logarithmic grids =   0.525181E-06
  | Analytical far-field extrapolation by fixed multipoles:
  | Hartree multipole sum: apparent total charge =   0.109448E-12
  Summing up the Hartree potential.
  Time summed over all CPUs for potential: real work        0.025 s, elapsed        0.025 s
  | RMS charge density error from multipole expansion :   0.595213E-02
  | Average real-space part of the electrostatic potential :      0.37139907 eV

  Integrating Hamiltonian matrix: batch-based integration.
  Time summed over all CPUs for integration: real work        2.524 s, elapsed        2.661 s

  Updating Kohn-Sham eigenvalues and eigenvectors using ELSI and the (modified) LAPACK eigensolver.
  Starting LAPACK eigensolver
  Finished Cholesky decomposition
  | Time :     0.000 s
  Finished transformation to standard eigenproblem
  | Time :     0.001 s
  Finished solving standard eigenproblem
  | Time :     0.002 s
  Finished back-transformation of eigenvectors
  | Time :     0.000 s

  Obtaining occupation numbers and electronic chemical potential using ELSI.
  | Note that, for insulating systems, the printed 'chemical potential' value is not uniquely defined.
  | It can be anywhere in the energy gap, as long as it correctly separates occupied and unoccupied states.
  | In systems with a gap, the physically relevant chemical potential is the VBM or HOMO.

  | Chemical potential (Fermi level):    -7.54907146 eV
  What follows are estimated values for band gap, HOMO, LUMO, etc.
  | They are estimated on a discrete k-point grid and not necessarily exact.
  | For converged numbers, create a DOS and/or band structure plot on a denser k-grid.

  Highest occupied state (VBM) at     -7.55248201 eV (relative to internal zero)
  | Occupation number:      1.37042539
  | K-point:       2 at    0.000000    0.000000    0.166667 (in units of recip. lattice)

  Lowest unoccupied state (CBM) at    -7.54855479 eV (relative to internal zero)
  | Occupation number:      0.94175228
  | K-point:     112 at    0.833333    0.833333    0.833333 (in units of recip. lattice)

  ESTIMATED overall HOMO-LUMO gap:      0.00392722 eV between HOMO at k-point 2 and LUMO at k-point 112
  | This appears to be an indirect band gap.
  | Smallest direct gap :      0.18532900 eV for k_point 74 at    0.333333    0.833333    0.666667 (in units of recip. lattice)
  However, this system has fractional occupation numbers. Since we use a finite k-point grid,
  this material is metallic within the approximate finite broadening function (occupation_type)
  applied to determine the occupation numbers.

  Checking to see if s.c.f. parameters should be adjusted.
  Adjusted the Pulay mixing parameter (charge_mix_param) for an expected low-gap system. New value:   0.020000 .
  Adjusted the occupation broadening width for an expected low-gap system. New value:      0.05000000 eV.

  Total energy components:
  | Sum of eigenvalues            :       -1195.57876549 Ha      -32533.35348767 eV
  | XC energy correction          :        -118.99542351 Ha       -3238.03022281 eV
  | XC potential correction       :         153.89449735 Ha        4187.68233995 eV
  | Free-atom electrostatic energy:        -850.80121301 Ha      -23151.47894030 eV
  | Hartree energy correction     :          -1.59589979 Ha         -43.42664269 eV
  | Entropy correction            :          -0.00006874 Ha          -0.00187057 eV
  | ---------------------------
  | Total energy                  :       -2013.07680444 Ha      -54778.60695352 eV
  | Total energy, T -> 0          :       -2013.07687318 Ha      -54778.60882409 eV  <-- do not rely on this value for anything but (periodic) metals
  | Electronic free energy        :       -2013.07694192 Ha      -54778.61069466 eV

  Derived energy quantities:
  | Kinetic energy                :        2031.05551291 Ha       55267.83250266 eV
  | Electrostatic energy          :       -3925.13689384 Ha     -106808.40923337 eV
  | Energy correction for multipole
  | error in Hartree potential    :           0.00691264 Ha           0.18810244 eV
  | Sum of eigenvalues per atom                           :       -5422.22558128 eV
  | Total energy (T->0) per atom                          :       -9129.76813735 eV  <-- do not rely on this value for anything but (periodic) metals
  | Electronic free energy per atom                       :       -9129.76844911 eV
  Evaluating new KS density using the density matrix
  Evaluating density matrix
  Time summed over all CPUs for getting density from density matrix: real work        5.210 s, elapsed        5.518 s
  Integration grid: deviation in total charge (<rho> - N_e) =  -1.804779E-12

  Self-consistency convergence accuracy:
  | Change of charge density      :  0.6531E+00
  | Change of unmixed KS density  :  0.1775E+00
  | Change of sum of eigenvalues  :  0.3400E+02 eV
  | Change of total energy        :  0.4306E+01 eV


------------------------------------------------------------
  End self-consistency iteration #     2       :  max(cpu_time)    wall_clock(cpu1)
  | Time for this iteration                     :        0.407 s           0.407 s
  | Charge density update                       :        0.235 s           0.236 s
  | Density mixing                              :        0.000 s           0.000 s
  | Hartree multipole update                    :        0.001 s           0.001 s
  | Hartree multipole summation                 :        0.027 s           0.027 s
  | Integration                                 :        0.114 s           0.115 s
  | Solution of K.-S. eqns.                     :        0.028 s           0.028 s
  | Total energy evaluation                     :        0.000 s           0.000 s

  Partial memory accounting:
  | Current value for overall tracked memory usage:
  |   Minimum:        6.548 MB (on task  0)
  |   Maximum:        6.706 MB (on task  2)
  |   Average:        6.645 MB
  | Peak value for overall tracked memory usage:
  |   Minimum:       15.474 MB (on task  6 after allocating gradient_basis_wave)
  |   Maximum:       17.642 MB (on task 16 after allocating gradient_basis_wave)
  |   Average:       16.629 MB
  | Largest tracked array allocation so far:
  |   Minimum:        4.689 MB (hamiltonian_shell on task  6)
  |   Maximum:        6.207 MB (hamiltonian_shell on task 16)
  |   Average:        5.512 MB
  Note:  These values currently only include a subset of arrays which are explicitly tracked.
  The "true" memory usage will be greater.
------------------------------------------------------------

------------------------------------------------------------
          Begin self-consistency iteration #    3

  Date     :  20240710, Time     :  215745.961
------------------------------------------------------------
  Pulay mixing of updated and previous charge densities.
  Available memory per node after mixing [GB]:   1044.55
  Renormalizing the density to the exact electron count on the 3D integration grid.
  | Formal number of electrons (from input files) :      76.0000000000
  | Integrated number of electrons on 3D grid     :      76.0000000000
  | Charge integration error                      :      -0.0000000000
  | Normalization factor for density and gradient :       1.0000000000

  Evaluating partitioned Hartree potential by multipole expansion.
  | Original multipole sum: apparent total charge =   0.620724E-13
  | Sum of charges compensated after spline to logarithmic grids =   0.679958E-06
  | Analytical far-field extrapolation by fixed multipoles:
  | Hartree multipole sum: apparent total charge =   0.611131E-13
  Summing up the Hartree potential.
  Time summed over all CPUs for potential: real work        0.025 s, elapsed        0.026 s
  | RMS charge density error from multipole expansion :   0.582215E-02
  | Average real-space part of the electrostatic potential :      0.35767569 eV

  Integrating Hamiltonian matrix: batch-based integration.
  Time summed over all CPUs for integration: real work        2.519 s, elapsed        2.649 s

  Updating Kohn-Sham eigenvalues and eigenvectors using ELSI and the (modified) LAPACK eigensolver.
  Starting LAPACK eigensolver
  Finished Cholesky decomposition
  | Time :     0.000 s
  Finished transformation to standard eigenproblem
  | Time :     0.001 s
  Finished solving standard eigenproblem
  | Time :     0.002 s
  Finished back-transformation of eigenvectors
  | Time :     0.000 s

  Obtaining occupation numbers and electronic chemical potential using ELSI.
  | Note that, for insulating systems, the printed 'chemical potential' value is not uniquely defined.
  | It can be anywhere in the energy gap, as long as it correctly separates occupied and unoccupied states.
  | In systems with a gap, the physically relevant chemical potential is the VBM or HOMO.

  | Chemical potential (Fermi level):    -7.23180586 eV
  What follows are estimated values for band gap, HOMO, LUMO, etc.
  | They are estimated on a discrete k-point grid and not necessarily exact.
  | For converged numbers, create a DOS and/or band structure plot on a denser k-grid.

  Highest occupied state (VBM) at     -7.23722737 eV (relative to internal zero)
  | Occupation number:      1.12187259
  | K-point:     111 at    0.833333    0.833333    0.166667 (in units of recip. lattice)

  Lowest unoccupied state (CBM) at    -7.23096852 eV (relative to internal zero)
  | Occupation number:      0.98110505
  | K-point:      61 at    0.333333    0.333333    0.833333 (in units of recip. lattice)

  ESTIMATED overall HOMO-LUMO gap:      0.00625885 eV between HOMO at k-point 111 and LUMO at k-point 61
  | This appears to be an indirect band gap.
  | Smallest direct gap :      0.19094688 eV for k_point 74 at    0.333333    0.833333    0.666667 (in units of recip. lattice)
  However, this system has fractional occupation numbers. Since we use a finite k-point grid,
  this material is metallic within the approximate finite broadening function (occupation_type)
  applied to determine the occupation numbers.

  Total energy components:
  | Sum of eigenvalues            :       -1195.63615213 Ha      -32534.91505763 eV
  | XC energy correction          :        -118.97965674 Ha       -3237.60118723 eV
  | XC potential correction       :         153.87420324 Ha        4187.13010900 eV
  | Free-atom electrostatic energy:        -850.80121301 Ha      -23151.47894030 eV
  | Hartree energy correction     :          -1.52867101 Ha         -41.59725455 eV
  | Entropy correction            :          -0.00006864 Ha          -0.00186788 eV
  | ---------------------------
  | Total energy                  :       -2013.07148964 Ha      -54778.46233071 eV
  | Total energy, T -> 0          :       -2013.07155829 Ha      -54778.46419859 eV  <-- do not rely on this value for anything but (periodic) metals
  | Electronic free energy        :       -2013.07162693 Ha      -54778.46606648 eV

  Derived energy quantities:
  | Kinetic energy                :        2030.94450719 Ha       55264.81188332 eV
  | Electrostatic energy          :       -3925.03634010 Ha     -106805.67302680 eV
  | Energy correction for multipole
  | error in Hartree potential    :           0.00694757 Ha           0.18905308 eV
  | Sum of eigenvalues per atom                           :       -5422.48584294 eV
  | Total energy (T->0) per atom                          :       -9129.74403310 eV  <-- do not rely on this value for anything but (periodic) metals
  | Electronic free energy per atom                       :       -9129.74434441 eV
  Evaluating new KS density using the density matrix
  Evaluating density matrix
[...]
  +-------------------------------------------------------------------+

 * Warning: Stress tensor is anisotropic. Be aware that pressure is an isotropic quantity.


  Self-consistency convergence accuracy:
  | Change of charge density      :  0.7467E-07
  | Change of unmixed KS density  :  0.1018E-06
  | Change of sum of eigenvalues  :  0.8532E-05 eV
  | Change of total energy        : -0.2209E-08 eV
  | Change of forces              :  0.1559E-04 eV/A

  Writing Kohn-Sham eigenvalues.
  K-point:       1 at    0.000000    0.000000    0.000000 (in units of recip. lattice)

  State    Occupation    Eigenvalue [Ha]    Eigenvalue [eV]
      1       2.00000        -180.091121        -4900.52874
      2       2.00000        -180.091103        -4900.52824
      3       2.00000         -19.884598         -541.08743
      4       2.00000         -19.884581         -541.08698
      5       2.00000         -18.869106         -513.45451
      6       2.00000         -18.869106         -513.45451
      7       2.00000         -18.869097         -513.45426
      8       2.00000         -18.869097         -513.45426
      9       2.00000         -16.472119         -448.22916
     10       2.00000         -16.472102         -448.22871
     11       2.00000         -16.471964         -448.22495
     12       2.00000         -16.471947         -448.22448
     13       2.00000         -16.471924         -448.22386
     14       2.00000         -16.471907         -448.22341
     15       2.00000          -2.415205          -65.72107
     16       2.00000          -2.414668          -65.70646
     17       2.00000          -1.543987          -42.01403
     18       2.00000          -1.543976          -42.01374
     19       2.00000          -1.538303          -41.85934
     20       2.00000          -1.538299          -41.85926
     21       2.00000          -1.537501          -41.83753
     22       2.00000          -1.536430          -41.80837
     23       2.00000          -0.986235          -26.83681
     24       2.00000          -0.945102          -25.71754
     25       2.00000          -0.919466          -25.01994
     26       2.00000          -0.919451          -25.01953
     27       2.00000          -0.530072          -14.42400
     28       2.00000          -0.514141          -13.99049
     29       2.00000          -0.492995          -13.41508
     30       2.00000          -0.459049          -12.49137
     31       2.00000          -0.459022          -12.49062
     32       2.00000          -0.413284          -11.24604
     33       2.00000          -0.413273          -11.24574
     34       2.00000          -0.392083          -10.66913
     35       2.00000          -0.347019           -9.44287
     36       2.00000          -0.337302           -9.17844
     37       2.00000          -0.337295           -9.17827
     38       2.00000          -0.319829           -8.70298
     39       0.00000          -0.254955           -6.93767
     40       0.00000          -0.244004           -6.63969
     41       0.00000          -0.234263           -6.37462
     42       0.00000          -0.232419           -6.32444
     43       0.00000          -0.232410           -6.32420
     44       0.00000          -0.167910           -4.56906
     45       0.00000          -0.158707           -4.31864
     46       0.00000          -0.084659           -2.30370
     47       0.00000          -0.084658           -2.30365
     48       0.00000          -0.053165           -1.44669
     49       0.00000          -0.035030           -0.95322
     50       0.00000           0.123473            3.35988
     51       0.00000           0.123483            3.36014
     52       0.00000           0.227130            6.18051
     53       0.00000           0.268529            7.30704
     54       0.00000           0.323731            8.80916
     55       0.00000           0.343899            9.35797
     56       0.00000           0.397093           10.80544
     57       0.00000           0.397146           10.80688
     58       0.00000           0.469861           12.78556
     59       0.00000           0.602952           16.40716
     60       0.00000           0.643506           17.51069
     61       0.00000           0.717058           19.51213

  What follows are estimated values for band gap, HOMO, LUMO, etc.
  | They are estimated on a discrete k-point grid and not necessarily exact.
  | For converged numbers, create a DOS and/or band structure plot on a denser k-grid.

  Highest occupied state (VBM) at     -8.70298246 eV (relative to internal zero)
  | Occupation number:      2.00000000
  | K-point:       1 at    0.000000    0.000000    0.000000 (in units of recip. lattice)

  Lowest unoccupied state (CBM) at    -6.93766682 eV (relative to internal zero)
  | Occupation number:      0.00000000
  | K-point:       1 at    0.000000    0.000000    0.000000 (in units of recip. lattice)

  ESTIMATED overall HOMO-LUMO gap:      1.76531564 eV between HOMO at k-point 1 and LUMO at k-point 1
  | This appears to be a direct band gap.
  The gap value is above 0.2 eV. Unless you are using a very sparse k-point grid,
  this system is most likely an insulator or a semiconductor.

  | Chemical Potential                          :    -8.48162189 eV
  | Note that, for insulating systems, the printed 'chemical potential' value is not uniquely defined.
  | It can be anywhere in the energy gap, as long as it correctly separates occupied and unoccupied states.
  | In systems with a gap, the physically relevant chemical potential is the VBM or HOMO.

  Self-consistency cycle converged.


------------------------------------------------------------
  End self-consistency iteration #     9       :  max(cpu_time)    wall_clock(cpu1)
  | Time for this iteration                     :        4.264 s           4.264 s
  | Charge density & force component update     :        3.807 s           3.806 s
  | Density mixing                              :        0.000 s           0.000 s
  | Hartree multipole update                    :        0.001 s           0.001 s
  | Hartree multipole summation                 :        0.170 s           0.170 s
  | Hartree pot. SCF incomplete forces          :        0.147 s           0.148 s
  | Integration                                 :        0.111 s           0.112 s
  | Solution of K.-S. eqns.                     :        0.026 s           0.026 s
  | Total energy evaluation                     :        0.000 s           0.001 s

  Partial memory accounting:
  | Current value for overall tracked memory usage:
  |   Minimum:        6.897 MB (on task 23)
  |   Maximum:        7.167 MB (on task 12)
  |   Average:        7.061 MB
  | Peak value for overall tracked memory usage:
  |   Minimum:       27.483 MB (on task 22 after allocating d_wave)
  |   Maximum:       28.748 MB (on task 16 after allocating d_wave)
  |   Average:       28.123 MB
  | Largest tracked array allocation so far:
  |   Minimum:        5.168 MB (density_matrix_con on task  5)
  |   Maximum:        6.207 MB (hamiltonian_shell on task 16)
  |   Average:        5.687 MB
  Note:  These values currently only include a subset of arrays which are explicitly tracked.
  The "true" memory usage will be greater.
------------------------------------------------------------
  Removing unitary transformations (pure translations, rotations) from forces on atoms.
  Atomic forces before filtering:
  | Net force on center of mass :  -0.934350E-07  0.519934E-07 -0.481950E-07 eV/A
  Atomic forces after filtering:
  | Net force on center of mass :   0.871124E-19  0.871124E-19  0.132923E-22 eV/A

  Energy and forces in a compact form:
  | Total energy uncorrected      :         -0.548009329361263E+05 eV
  | Total energy corrected        :         -0.548009329361263E+05 eV  <-- do not rely on this value for anything but (periodic) metals
  | Electronic free energy        :         -0.548009329361263E+05 eV
  Total atomic forces (unitary forces cleaned) [eV/Ang]:
  |    1         -0.758530672741022E-06          0.763471744642212E-06          0.600001196432625E-07
  |    2          0.478189514803573E-06         -0.509906603833339E-06         -0.498993950303182E-07
  |    3         -0.472580775501329E-03         -0.469942399361760E-03          0.427342564037656E-08
  |    4          0.472546494184676E-03          0.469993337942600E-03          0.431404546204998E-08
  |    5         -0.296591665721892E-03          0.298070608040786E-03         -0.888004696446407E-08
  |    6          0.296906288196482E-03         -0.298375111762435E-03         -0.980814875090672E-08

  ------------------------------------ 
  Start decomposition of the XC Energy 
  ------------------------------------ 
  X and C from original XC functional choice 
  Hartree-Fock Energy :          0.000000000 Ha              0.000000000 eV
  X Energy            :       -115.609215303 Ha          -3145.886809342 eV
  C Energy            :         -3.010272820 Ha            -81.913691164 eV
  XC Energy w/o HF    :       -118.619488123 Ha          -3227.800500506 eV
  Total XC Energy     :       -118.619488123 Ha          -3227.800500506 eV
  ------------------------------------ 
  LDA X and C from self-consistent density 
  X Energy LDA        :       -107.321981643 Ha          -2920.379707784 eV
  C Energy LDA        :         -5.870989628 Ha           -159.757756163 eV
  ------------------------------------ 
  End decomposition of the XC Energy 
  ------------------------------------ 

------------------------------------------------------------
  Relaxation / MD: End force evaluation.       :  max(cpu_time)    wall_clock(cpu1)
  | Time for this force evaluation              :        8.188 s           8.189 s

------------------------------------------------------------
  Geometry optimization: Attempting to predict improved coordinates.

  +-------------------------------------------------------------------+
  | Generalized derivatives on lattice vectors [eV/A]                 |
  +-------------------------------------------------------------------+
  |lattice_vector       0.00081448       0.00097850      -0.00000000  |
  |lattice_vector       0.00097849       0.00078940       0.00000000  |
  |lattice_vector      -0.00000000       0.00000000      -0.00109181  |
  +-------------------------------------------------------------------+
  | Forces on lattice vectors cleaned from atomic contributions [eV/A]|
  +-------------------------------------------------------------------+
  |lattice_vector      -0.00081448      -0.00097850       0.00000000  |
  |lattice_vector      -0.00097849      -0.00078940      -0.00000000  |
  |lattice_vector       0.00000000      -0.00000000       0.00109181  |
  +-------------------------------------------------------------------+
  Removing unitary transformations (pure translations, rotations) from forces on atoms.
  Atomic forces before filtering:
  | Net force on center of mass :   0.871124E-19  0.871124E-19  0.132923E-22 eV/A
  Atomic forces after filtering:
  | Net force on center of mass :   0.871124E-19  0.000000E+00 -0.265846E-23 eV/A
  Net remaining forces (excluding translations, rotations) in present geometry:
  || Forces on atoms   || =   0.472581E-03 eV/A.
  || Forces on lattice || =   0.109181E-02 eV/A^3.
  Maximum force component is  0.109181E-02 eV/A.
  Present geometry is converged.

------------------------------------------------------------
  Final atomic structure:
                         x [A]             y [A]             z [A]
  lattice_vector         4.64306176        0.00012152        0.00000000
  lattice_vector         0.00012172        4.64308665       -0.00000000
  lattice_vector         0.00000000       -0.00000000        2.97288267

            atom         0.00000003       -0.00000003        0.00000005  Ti
            atom         2.32159173        2.32160409        1.48644132  Ti
            atom         1.41876293        1.41881200       -0.00000001  O
            atom         3.22442055        3.22439618       -0.00000001  O
            atom         0.90292387        3.74032126        1.48644133  O
            atom         3.74025960        0.90288693        1.48644133  O

  Fractional coordinates:
                         L1                L2                L3
       atom_frac         0.00000001       -0.00000001        0.00000002  Ti
       atom_frac         0.50000000        0.50000000        0.50000000  Ti
       atom_frac         0.30555823        0.30556717       -0.00000000  O
       atom_frac         0.69444177        0.69443283       -0.00000000  O
       atom_frac         0.19444622        0.80556275        0.50000000  O
       atom_frac         0.80555378        0.19443726        0.50000000  O
------------------------------------------------------------

------------------------------------------------------------------------------
  Final output of selected total energy values:

  The following output summarizes some interesting total energy values
  at the end of a run (AFTER all relaxation, molecular dynamics, etc.).

  | Total energy of the DFT / Hartree-Fock s.c.f. calculation      :         -54800.932936126 eV
  | Final zero-broadening corrected energy (caution - metals only) :         -54800.932936126 eV
  | For reference only, the value of 1 Hartree used in FHI-aims is :             27.211384500 eV
  | For reference only, the overall average (free atom contribution
  | + realspace contribution) of the electrostatic potential after
  | s.c.f. convergence is                                          :            -17.020732629 eV

  Before relying on these values, please be sure to understand exactly which
  total energy value is referred to by a given number. Different objects may
  all carry the same name 'total energy'. Definitions:

  Total energy of the DFT / Hartree-Fock s.c.f. calculation:
  | Note that this energy does not include ANY quantities calculated after the
  | s.c.f. cycle, in particular not ANY RPA, MP2, etc. many-body perturbation terms.

  Final zero-broadening corrected energy:
  | For metallic systems only, a broadening of the occupation numbers at the Fermi
  | level can be extrapolated back to zero broadening by an electron-gas inspired
  | formula. For all systems that are not real metals, this value can be
  | meaningless and should be avoided.

------------------------------------------------------------------------------
  Methods described in the following list of references were used in this FHI-aims run.
  If you publish the results, please make sure to cite these reference if they apply.
  FHI-aims is an academic code, and for our developers (often, Ph.D. students
  and postdocs), scientific credit in the community is essential.
  Thank you for helping us!

  For any use of FHI-aims, please cite:

    Volker Blum, Ralf Gehrke, Felix Hanke, Paula Havu, Ville Havu,
    Xinguo Ren, Karsten Reuter, and Matthias Scheffler
    'Ab initio molecular simulations with numeric atom-centered orbitals'
    Computer Physics Communications 180, 2175-2196 (2009)
    http://doi.org/10.1016/j.cpc.2009.06.022


  For the analytical stress tensor used in your run, please cite:

    Franz Knuth, Christian Carbogno, Viktor Atalla, Volker Blum, Matthias Scheffler
    'All-electron formalism for total energy strain derivatives and
    stress tensor components for numeric atom-centered orbitals'
    Computer Physics Communications 190, 33-50 (2015).
    http://doi.org/10.1016/j.cpc.2015.01.003


  The provided symmetry information was generated with SPGlib:

    Atsushi Togo, Yusuke Seto, Dimitar Pashov
    SPGlib 1.7.3 obtained from http://spglib.sourceforge.net
    Licence: New BSD license
    Copyright (C) 2008 Atsushi Togo


  The ELSI infrastructure was used in your run to solve the Kohn-Sham electronic structure.
  Please check out https://wordpress.elsi-interchange.org to learn more.
  If scalability is important for your project, please acknowledge ELSI by citing:

    V. W-z. Yu, F. Corsetti, A. Garcia, W. P. Huhn, M. Jacquelin, W. Jia,
    B. Lange, L. Lin, J. Lu, W. Mi, A. Seifitokaldani, A. Vazquez-Mayagoitia,
    C. Yang, H. Yang, and V. Blum
    'ELSI: A unified software interface for Kohn-Sham electronic structure solvers'
    Computer Physics Communications 222, 267-285 (2018).
    http://doi.org/10.1016/j.cpc.2017.09.007


  For the real-space grid partitioning and parallelization used in this calculation, please cite:

    Ville Havu, Volker Blum, Paula Havu, and Matthias Scheffler,
    'Efficient O(N) integration for all-electron electronic structure calculation'
    'using numerically tabulated basis functions'
    Journal of Computational Physics 228, 8367-8379 (2009).
    http://doi.org/10.1016/j.jcp.2009.08.008

  Of course, there are many other important community references, e.g., those cited in the
  above references. Our list is limited to references that describe implementations in the
  FHI-aims code. The reason is purely practical (length of this list) - please credit others as well.

------------------------------------------------------------
          Leaving FHI-aims.
          Date     :  20240710, Time     :  220000.559

          Computational steps:
          | Number of self-consistency cycles          :          203
          | Number of SCF (re)initializations          :           12
          | Number of relaxation steps                 :           11

          Detailed time accounting                     :  max(cpu_time)    wall_clock(cpu1)
          | Total time                                  :      136.281 s         136.287 s
          | Preparation time                            :        0.206 s           0.204 s
          | Boundary condition initalization            :        0.296 s           0.281 s
          | Grid partitioning                           :        0.178 s           0.178 s
          | Preloading free-atom quantities on grid     :        0.984 s           0.985 s
          | Free-atom superposition energy              :        0.104 s           0.104 s
          | Total time for integrations                 :       23.674 s          23.683 s
          | Total time for solution of K.-S. equations  :        5.531 s           5.529 s
          | Total time for EV reorthonormalization      :        0.047 s           0.037 s
          | Total time for density & force components   :       92.014 s          92.018 s
          | Total time for mixing                       :        0.061 s           0.067 s
          | Total time for Hartree multipole update     :        0.171 s           0.160 s
          | Total time for Hartree multipole sum        :        9.203 s           9.207 s
          | Total time for total energy evaluation      :        0.044 s           0.044 s
          | Total time NSC force correction             :        3.523 s           3.525 s
          | Total time for scaled ZORA corrections      :        0.000 s           0.000 s

          Partial memory accounting:
          | Residual value for overall tracked memory usage across tasks:     0.000000 MB (should be 0.000000 MB)
          | Peak values for overall tracked memory usage:
          |   Minimum:       27.483 MB (on task 22 after allocating d_wave)
          |   Maximum:       28.748 MB (on task 16 after allocating d_wave)
          |   Average:       28.123 MB
          | Largest tracked array allocation:
          |   Minimum:        5.168 MB (density_matrix_con on task  5)
          |   Maximum:        6.207 MB (hamiltonian_shell on task 16)
          |   Average:        5.687 MB
          Note:  These values currently only include a subset of arrays which are explicitly tracked.
          The "true" memory usage will be greater.

          Have a nice day.
------------------------------------------------------------
