------------------------------------------------------------
          Invoking FHI-aims ...

          When using FHI-aims, please cite the following reference:

            Volker Blum, Ralf Gehrke, Felix Hanke, Paula Havu,
            Ville Havu, Xinguo Ren, Karsten Reuter, and Matthias Scheffler,
            'Ab Initio Molecular Simulations with Numeric Atom-Centered Orbitals',
            Computer Physics Communications 180, 2175-2196 (2009)

          In addition, many other developments in FHI-aims are likely important for
          your particular application. If so, please cite them. A partial list of references
          is written at the end of this file. Thank you for giving credit to the authors
          of these developments.

          For general information about FHI-aims please find us at

            https://fhi-aims.org

          Online tutorials can be found at

            https://fhi-aims-club.gitlab.io/tutorials/tutorials-overview/

          For any questions about FHI-aims, please visit our slack channel at

            https://fhi-aims.slack.com

          and our main development and support site at

            https://aims-git.rz-berlin.mpg.de .

          The latter site, in particular, has a wiki to collect information, as well
          as an issue tracker to log discussions, suggest improvements, and report issues
          or bugs. https://aims-git.rz-berlin.mpg.de is also the main development site
          of the project and all new and updated code versions can be obtained there.
          Please send an email to aims-coordinators@fhi-berlin.mpg.de and we will add
          you to these sites. They are for you and everyone is welcome there.

------------------------------------------------------------



  Date     :  20250311, Time     :  172445.169
  Time zero on CPU 1             :   0.424135000000000E+00  s.
  Internal wall clock time zero  :           510945885.169  s.

  FHI-aims created a unique identifier for this run for later identification
  aims_uuid : C88F6054-7F16-44AD-A59F-9AC0EC3E9577

  Build configuration of the current instance of FHI-aims
  -------------------------------------------------------
  FHI-aims version      : 240605
  Commit number         : b001b2e18
  CMake host system     : Linux-6.5.0-41-generic
  CMake version         : 3.22.1
  Fortran compiler      : /opt/intel/oneapi/mpi/2021.12/bin/mpiifort (IntelLLVM) version 2024.1.0
  Fortran compiler flags: -fc=ifx -O3 -ip -fp-model precise
  C compiler            : /opt/intel/oneapi/mpi/2021.12/bin/mpiicc (IntelLLVM) version 2024.1.0
  C compiler flags      : -cc=icx -O3 -ip -fp-model precise -std=gnu99
  C++ compiler          : /opt/intel/oneapi/mpi/2021.12/bin/mpiicpc (IntelLLVM) version 2024.1.0
  C++ compiler flags    : -cxx=icpx -O3 -ip -fp-model precise -std=c++11
  HIP compiler          :
  HIP compiler flags    :
  HIP GPU arch          :
  Using MPI
  Using ScaLAPACK
  Using LibXC
  Using i-PI
  Using RLSY
  Linking against: /opt/intel/oneapi/mkl/2024.1/lib/intel64/libmkl_intel_lp64.so
                   /opt/intel/oneapi/mkl/2024.1/lib/intel64/libmkl_sequential.so
                   /opt/intel/oneapi/mkl/2024.1/lib/intel64/libmkl_core.so
                   /opt/intel/oneapi/mkl/2024.1/lib/intel64/libmkl_blacs_intelmpi_lp64.so
                   /opt/intel/oneapi/mkl/2024.1/lib/intel64/libmkl_scalapack_lp64.so
                   /opt/intel/oneapi/mkl/2024.1/lib/intel64/libmkl_core.so

  Using       32 parallel tasks.
  Task        0 on host RSL-arvutus reporting.
  Task        1 on host RSL-arvutus reporting.
  Task        2 on host RSL-arvutus reporting.
  Task        3 on host RSL-arvutus reporting.
  Task        4 on host RSL-arvutus reporting.
  Task        5 on host RSL-arvutus reporting.
  Task        6 on host RSL-arvutus reporting.
  Task        7 on host RSL-arvutus reporting.
  Task        8 on host RSL-arvutus reporting.
  Task        9 on host RSL-arvutus reporting.
  Task       10 on host RSL-arvutus reporting.
  Task       11 on host RSL-arvutus reporting.
  Task       12 on host RSL-arvutus reporting.
  Task       13 on host RSL-arvutus reporting.
  Task       14 on host RSL-arvutus reporting.
  Task       15 on host RSL-arvutus reporting.
  Task       16 on host RSL-arvutus reporting.
  Task       17 on host RSL-arvutus reporting.
  Task       18 on host RSL-arvutus reporting.
  Task       19 on host RSL-arvutus reporting.
  Task       20 on host RSL-arvutus reporting.
  Task       21 on host RSL-arvutus reporting.
  Task       22 on host RSL-arvutus reporting.
  Task       23 on host RSL-arvutus reporting.
  Task       24 on host RSL-arvutus reporting.
  Task       25 on host RSL-arvutus reporting.
  Task       26 on host RSL-arvutus reporting.
  Task       27 on host RSL-arvutus reporting.
  Task       28 on host RSL-arvutus reporting.
  Task       29 on host RSL-arvutus reporting.
  Task       30 on host RSL-arvutus reporting.
  Task       31 on host RSL-arvutus reporting.

  Memory overcommitment is allowed on your operating system.

  Obtaining array dimensions for all initial allocations:
  
  -----------------------------------------------------------------------
  Parsing control.in (first pass over file, find array dimensions only).
  The contents of control.in will be repeated verbatim below
  unless switched off by setting 'verbatim_writeout .false.' .
  in the first line of control.in .
  -----------------------------------------------------------------------
  
  xc                 pbe
  relativistic       atomic_zora scalar
  relax_geometry     bfgs 5e-3
  spin               none
  ################################################################################
  #
  #  FHI-aims code project
  #  Volker Blum, Fritz Haber Institute Berlin, 2009
  #
  #  Suggested "tight" defaults for C atom (to be pasted into control.in file)
  #
  ################################################################################
    species        C
  #     global species definitions
      nucleus             6
      mass                12.0107
  #
      l_hartree           6
  #
      cut_pot             4.0  2.0  1.0
      basis_dep_cutoff    1e-4
  #
      radial_base         34 7.0
      radial_multiplier   2
      angular_grids specified
        division   0.2187   50
        division   0.4416  110
        division   0.6335  194
        division   0.7727  302
        division   0.8772  434
  #      division   0.9334  590
  #      division   0.9924  770
  #      division   1.0230  974
  #      division   1.5020 1202
  #     outer_grid  974
        outer_grid  434
  ################################################################################
  #
  #  Definition of "minimal" basis
  #
  ################################################################################
  #     valence basis states
      valence      2  s   2.
      valence      2  p   2.
  #     ion occupancy
      ion_occ      2  s   1.
      ion_occ      2  p   1.
  ################################################################################
  #
  #  Suggested additional basis functions. For production calculations,
  #  uncomment them one after another (the most important basis functions are
  #  listed first).
  #
  #  Constructed for dimers: 1.0 A, 1.25 A, 1.5 A, 2.0 A, 3.0 A
  #
  ################################################################################
  #  "First tier" - improvements: -1214.57 meV to -155.61 meV
       hydro 2 p 1.7
       hydro 3 d 6
       hydro 2 s 4.9
  #  "Second tier" - improvements: -67.75 meV to -5.23 meV
       hydro 4 f 9.8
       hydro 3 p 5.2
       hydro 3 s 4.3
       hydro 5 g 14.4
       hydro 3 d 6.2
  #  "Third tier" - improvements: -2.43 meV to -0.60 meV
  #     hydro 2 p 5.6
  #     hydro 2 s 1.4
  #     hydro 3 d 4.9
  #     hydro 4 f 11.2
  #  "Fourth tier" - improvements: -0.39 meV to -0.18 meV
  #     hydro 2 p 2.1
  #     hydro 5 g 16.4
  #     hydro 4 d 13.2
  #     hydro 3 s 13.6
  #     hydro 4 f 17.6
  #  Further basis functions - improvements: -0.08 meV and below
  #     hydro 3 s 2
  #     hydro 3 p 6
  #     hydro 4 d 20
  ################################################################################
  #
  # For methods that use the localized form of the "resolution of identity" for
  # the two-electron Coulomb operator (RI_method LVL), particularly Hartree-Fock and
  # hybrid density functional calculations, the highest accuracy can be obtained by
  # uncommenting the line beginning with "for_aux"  below, thus adding an extra g radial
  # function to the construction of the product basis set for the expansion.
  # See Ref. New J. Phys. 17, 093020 (2015) for more information, particularly Figs. 1 and 6.
  #
  ################################################################################
  #
  # for_aux hydro 5 g 6.0
  ################################################################################
  #
  #  FHI-aims code project
  #  Volker Blum, Fritz Haber Institute Berlin, 2009
  #
  #  Suggested "tight" defaults for O atom (to be pasted into control.in file)
  #
  ################################################################################
    species        O
  #     global species definitions
      nucleus             8
      mass                15.9994
  #
      l_hartree           6
  #
      cut_pot             4.0  2.0  1.0
      basis_dep_cutoff    1e-4
  #
      radial_base         36 7.0
      radial_multiplier   2
       angular_grids specified
        division   0.1817   50
        division   0.3417  110
        division   0.4949  194
        division   0.6251  302
        division   0.8014  434
  #      division   0.8507  590
  #      division   0.8762  770
  #      division   0.9023  974
  #      division   1.2339 1202
  #      outer_grid 974
        outer_grid  434
  ################################################################################
  #
  #  Definition of "minimal" basis
  #
  ################################################################################
  #     valence basis states
      valence      2  s   2.
      valence      2  p   4.
  #     ion occupancy
      ion_occ      2  s   1.
      ion_occ      2  p   3.
  ################################################################################
  #
  #  Suggested additional basis functions. For production calculations,
  #  uncomment them one after another (the most important basis functions are
  #  listed first).
  #
  #  Constructed for dimers: 1.0 A, 1.208 A, 1.5 A, 2.0 A, 3.0 A
  #
  ################################################################################
  #  "First tier" - improvements: -699.05 meV to -159.38 meV
       hydro 2 p 1.8
       hydro 3 d 7.6
       hydro 3 s 6.4
  #  "Second tier" - improvements: -49.91 meV to -5.39 meV
       hydro 4 f 11.6
       hydro 3 p 6.2
       hydro 3 d 5.6
       hydro 5 g 17.6
       hydro 1 s 0.75
  #  "Third tier" - improvements: -2.83 meV to -0.50 meV
  #     ionic 2 p auto
  #     hydro 4 f 10.8
  #     hydro 4 d 4.7
  #     hydro 2 s 6.8
  #  "Fourth tier" - improvements: -0.40 meV to -0.12 meV
  #     hydro 3 p 5
  #     hydro 3 s 3.3
  #     hydro 5 g 15.6
  #     hydro 4 f 17.6
  #     hydro 4 d 14
  # Further basis functions - -0.08 meV and below
  #     hydro 3 s 2.1
  #     hydro 4 d 11.6
  #     hydro 3 p 16
  #     hydro 2 s 17.2
  ################################################################################
  #
  # For methods that use the localized form of the "resolution of identity" for
  # the two-electron Coulomb operator (RI_method LVL), particularly Hartree-Fock and
  # hybrid density functional calculations, the highest accuracy can be obtained by
  # uncommenting the line beginning with "for_aux"  below, thus adding an extra g radial
  # function to the construction of the product basis set for the expansion.
  # See Ref. New J. Phys. 17, 093020 (2015) for more information, particularly Figs. 1 and 6.
  #
  ################################################################################
  #
  # for_aux hydro 5 g 6.0
  ################################################################################
  #
  #  FHI-aims code project
  #  Volker Blum, Fritz Haber Institute Berlin, 2009
  #
  #  Suggested "tight" defaults for H atom (to be pasted into control.in file)
  #
  ################################################################################
    species        H
  #     global species definitions
      nucleus             1
      mass                1.00794
  #
      l_hartree           6
  #
      cut_pot             4.0  2.0  1.0
      basis_dep_cutoff    1e-4
  #
      radial_base         24 7.0
      radial_multiplier   2
      angular_grids       specified
        division   0.1930   50
        division   0.3175  110
        division   0.4293  194
        division   0.5066  302
        division   0.5626  434
  #      division   0.5922  590
  #      division   0.6227  974
  #      division   0.6868 1202
  #      outer_grid  770
        outer_grid  434
  ################################################################################
  #
  #  Definition of "minimal" basis
  #
  ################################################################################
  #     valence basis states
      valence      1  s   1.
  #     ion occupancy
      ion_occ      1  s   0.5
  ################################################################################
  #
  #  Suggested additional basis functions. For production calculations,
  #  uncomment them one after another (the most important basis functions are
  #  listed first).
  #
  #  Basis constructed for dimers: 0.5 A, 0.7 A, 1.0 A, 1.5 A, 2.5 A
  #
  ################################################################################
  #  "First tier" - improvements: -1014.90 meV to -62.69 meV
       hydro 2 s 2.1
       hydro 2 p 3.5
  #  "Second tier" - improvements: -12.89 meV to -1.83 meV
       hydro 1 s 0.85
       hydro 2 p 3.7
       hydro 2 s 1.2
       hydro 3 d 7
  #  "Third tier" - improvements: -0.25 meV to -0.12 meV
  #     hydro 4 f 11.2
  #     hydro 3 p 4.8
  #     hydro 4 d 9
  #     hydro 3 s 3.2
  ################################################################################
  #
  # For methods that use the localized form of the "resolution of identity" for
  # the two-electron Coulomb operator (RI_method LVL), particularly Hartree-Fock and
  # hybrid density functional calculations, the highest accuracy can be obtained by
  # uncommenting the line beginning with "for_aux"  below, thus adding an extra g radial
  # function to the construction of the product basis set for the expansion.
  # See Ref. New J. Phys. 17, 093020 (2015) for more information, particularly Figs. 1 and 6.
  #
  ################################################################################
  #
  # for_aux hydro 5 g 6.0
  
  -----------------------------------------------------------------------
  Completed first pass over input file control.in .
  -----------------------------------------------------------------------
  
  
  -----------------------------------------------------------------------
  Parsing geometry.in (first pass over file, find array dimensions only).
  The contents of geometry.in will be repeated verbatim below
  unless switched off by setting 'verbatim_writeout .false.' .
  in the first line of geometry.in .
  -----------------------------------------------------------------------
  
  atom   0.6123    0.0000    0.0000 O
  atom  -0.6123    0.0000    0.0000 C
  atom  -1.2000    0.2426   -0.8998 H
  atom  -1.2000   -0.2424    0.8998 H
  
  -----------------------------------------------------------------------
  Completed first pass over input file geometry.in .
  -----------------------------------------------------------------------
  

  Basic array size parameters:
  | Number of species                 :        3
  | Number of atoms                   :        4
  | Max. basis fn. angular momentum   :        4
  | Max. atomic/ionic basis occupied n:        2
  | Max. number of basis fn. types    :        2
  | Max. radial fns per species/type  :        8
  | Max. logarithmic grid size        :     1301
  | Max. radial integration grid size :       73
  | Max. angular integration grid size:      434
  | Max. angular grid division number :        8
  | Radial grid for Hartree potential :     1301
  | Number of spin channels           :        1

------------------------------------------------------------
          Reading file control.in.
------------------------------------------------------------
  XC: Using PBE gradient-corrected functionals.
  Scalar relativistic treatment of kinetic energy: on-site free-atom approximation to ZORA.
  Geometry relaxation: Modified BFGS - TRM (trust radius method) for lattice optimization.
  Convergence accuracy for geometry relaxation: Maximum force <   0.500000E-02 eV/A.
  Spin treatment: No spin polarisation.
 
  Reading configuration options for species C                   .
  | Found nuclear charge :   6.0000
  | Found atomic mass :    12.0107000000000      amu
  | Found l_max for Hartree potential  :   6
  | Found cutoff potl. onset [A], width [A], scale factor :    4.00000    2.00000    1.00000
  | Threshold for basis-dependent cutoff potential is   0.100000E-03
  | Found data for basic radial integration grid :    34 points, outermost radius =    7.000 A
  | Found multiplier for basic radial grid :   2
  | Found angular grid specification: user-specified.
  | Specified grid contains     6 separate shells.
  | Check grid settings after all constraints further below.
  | Found free-atom valence shell :  2 s   2.000
  | Found free-atom valence shell :  2 p   2.000
  | No ionic wave fns used. Skipping ion_occ.
  | No ionic wave fns used. Skipping ion_occ.
  | Found hydrogenic basis function :  2 p   1.700
  | Found hydrogenic basis function :  3 d   6.000
  | Found hydrogenic basis function :  2 s   4.900
  | Found hydrogenic basis function :  4 f   9.800
  | Found hydrogenic basis function :  3 p   5.200
  | Found hydrogenic basis function :  3 s   4.300
  | Found hydrogenic basis function :  5 g  14.400
  | Found hydrogenic basis function :  3 d   6.200
 | Encountered keyword species, ending the description of species C                   .
  Species C                   : Missing cutoff potential type.
  Defaulting to exp(1/x)/(1-x)^2 type cutoff potential.
  Species C : No 'logarithmic' tag. Using default grid for free atom:
  | Default logarithmic grid data [bohr] : 0.1000E-03 0.1000E+03 0.1012E+01
  Species C : On-site basis accuracy parameter (for Gram-Schmidt orthonormalisation) not specified.
  Using default value basis_acc =  0.1000000E-03.
  Species C                   : Using default innermost maximum threshold i_radial=  2 for radial functions.
  Species C                   : Default cutoff onset for free atom density etc. : 0.40000000E+01 AA.
  Species C                   : Basic radial grid will be enhanced according to radial_multiplier =   2, to contain    69 grid points.
 
  Reading configuration options for species O                   .
  | Found nuclear charge :   8.0000
  | Found atomic mass :    15.9994000000000      amu
  | Found l_max for Hartree potential  :   6
  | Found cutoff potl. onset [A], width [A], scale factor :    4.00000    2.00000    1.00000
  | Threshold for basis-dependent cutoff potential is   0.100000E-03
  | Found data for basic radial integration grid :    36 points, outermost radius =    7.000 A
  | Found multiplier for basic radial grid :   2
  | Found angular grid specification: user-specified.
  | Specified grid contains     6 separate shells.
  | Check grid settings after all constraints further below.
  | Found free-atom valence shell :  2 s   2.000
  | Found free-atom valence shell :  2 p   4.000
  | No ionic wave fns used. Skipping ion_occ.
  | No ionic wave fns used. Skipping ion_occ.
  | Found hydrogenic basis function :  2 p   1.800
  | Found hydrogenic basis function :  3 d   7.600
  | Found hydrogenic basis function :  3 s   6.400
  | Found hydrogenic basis function :  4 f  11.600
  | Found hydrogenic basis function :  3 p   6.200
  | Found hydrogenic basis function :  3 d   5.600
  | Found hydrogenic basis function :  5 g  17.600
  | Found hydrogenic basis function :  1 s   0.750
 | Encountered keyword species, ending the description of species O                   .
  Species O                   : Missing cutoff potential type.
  Defaulting to exp(1/x)/(1-x)^2 type cutoff potential.
  Species O : No 'logarithmic' tag. Using default grid for free atom:
  | Default logarithmic grid data [bohr] : 0.1000E-03 0.1000E+03 0.1012E+01
  Species O : On-site basis accuracy parameter (for Gram-Schmidt orthonormalisation) not specified.
  Using default value basis_acc =  0.1000000E-03.
  Species O                   : Using default innermost maximum threshold i_radial=  2 for radial functions.
  Species O                   : Default cutoff onset for free atom density etc. : 0.40000000E+01 AA.
  Species O                   : Basic radial grid will be enhanced according to radial_multiplier =   2, to contain    73 grid points.
 
  Reading configuration options for species H                   .
  | Found nuclear charge :   1.0000
  | Found atomic mass :    1.00794000000000      amu
  | Found l_max for Hartree potential  :   6
  | Found cutoff potl. onset [A], width [A], scale factor :    4.00000    2.00000    1.00000
  | Threshold for basis-dependent cutoff potential is   0.100000E-03
  | Found data for basic radial integration grid :    24 points, outermost radius =    7.000 A
  | Found multiplier for basic radial grid :   2
  | Found angular grid specification: user-specified.
  | Specified grid contains     6 separate shells.
  | Check grid settings after all constraints further below.
  | Found free-atom valence shell :  1 s   1.000
  | No ionic wave fns used. Skipping ion_occ.
  | Found hydrogenic basis function :  2 s   2.100
  | Found hydrogenic basis function :  2 p   3.500
  | Found hydrogenic basis function :  1 s   0.850
  | Found hydrogenic basis function :  2 p   3.700
  | Found hydrogenic basis function :  2 s   1.200
  | Found hydrogenic basis function :  3 d   7.000
  Species H                   : Missing cutoff potential type.
  Defaulting to exp(1/x)/(1-x)^2 type cutoff potential.
  Species H : No 'logarithmic' tag. Using default grid for free atom:
  | Default logarithmic grid data [bohr] : 0.1000E-03 0.1000E+03 0.1012E+01
  Species H : On-site basis accuracy parameter (for Gram-Schmidt orthonormalisation) not specified.
  Using default value basis_acc =  0.1000000E-03.
  Species H                   : Using default innermost maximum threshold i_radial=  2 for radial functions.
  Species H                   : Default cutoff onset for free atom density etc. : 0.40000000E+01 AA.
  Species H                   : Basic radial grid will be enhanced according to radial_multiplier =   2, to contain    49 grid points.
 
  Finished reading input file 'control.in'.
 
------------------------------------------------------------


------------------------------------------------------------
          Reading geometry description geometry.in.
------------------------------------------------------------
  | The smallest distance between any two atoms is         1.10172097 AA.
  | The first atom of this pair is atom number                      2 .
  | The second atom of this pair is atom number                     4 .
  Input structure read successfully.
  The structure contains        4 atoms,  and a total of         16.000 electrons.

  Input geometry:
  | No unit cell requested.
  | Atomic structure:
  |       Atom                x [A]            y [A]            z [A]
  |    1: Species O             0.61230000        0.00000000        0.00000000
  |    2: Species C            -0.61230000        0.00000000        0.00000000
  |    3: Species H            -1.20000000        0.24260000       -0.89980000
  |    4: Species H            -1.20000000       -0.24240000        0.89980000

  Slab Identifier: This is not a periodic structure.
 
  Finished reading input file 'geometry.in'.
 

 
  Consistency checks for stacksize environment parameter are next.
 
  | Maximum stacksize for task 0: unlimited
  | Maximum stacksize for task 1: unlimited
  | Maximum stacksize for task 2: unlimited
  | Maximum stacksize for task 3: unlimited
  | Maximum stacksize for task 4: unlimited
  | Maximum stacksize for task 5: unlimited
  | Maximum stacksize for task 6: unlimited
  | Maximum stacksize for task 7: unlimited
  | Maximum stacksize for task 8: unlimited
  | Maximum stacksize for task 9: unlimited
  | Maximum stacksize for task 10: unlimited
  | Maximum stacksize for task 11: unlimited
  | Maximum stacksize for task 12: unlimited
  | Maximum stacksize for task 13: unlimited
  | Maximum stacksize for task 14: unlimited
  | Maximum stacksize for task 15: unlimited
  | Maximum stacksize for task 16: unlimited
  | Maximum stacksize for task 17: unlimited
  | Maximum stacksize for task 18: unlimited
  | Maximum stacksize for task 19: unlimited
  | Maximum stacksize for task 20: unlimited
  | Maximum stacksize for task 21: unlimited
  | Maximum stacksize for task 22: unlimited
  | Maximum stacksize for task 23: unlimited
  | Maximum stacksize for task 24: unlimited
  | Maximum stacksize for task 25: unlimited
  | Maximum stacksize for task 26: unlimited
  | Maximum stacksize for task 27: unlimited
  | Maximum stacksize for task 28: unlimited
  | Maximum stacksize for task 29: unlimited
  | Maximum stacksize for task 30: unlimited
  | Maximum stacksize for task 31: unlimited
  | Current stacksize for task 0: unlimited
  | Current stacksize for task 1: unlimited
  | Current stacksize for task 2: unlimited
  | Current stacksize for task 3: unlimited
  | Current stacksize for task 4: unlimited
  | Current stacksize for task 5: unlimited
  | Current stacksize for task 6: unlimited
  | Current stacksize for task 7: unlimited
  | Current stacksize for task 8: unlimited
  | Current stacksize for task 9: unlimited
  | Current stacksize for task 10: unlimited
  | Current stacksize for task 11: unlimited
  | Current stacksize for task 12: unlimited
  | Current stacksize for task 13: unlimited
  | Current stacksize for task 14: unlimited
  | Current stacksize for task 15: unlimited
  | Current stacksize for task 16: unlimited
  | Current stacksize for task 17: unlimited
  | Current stacksize for task 18: unlimited
  | Current stacksize for task 19: unlimited
  | Current stacksize for task 20: unlimited
  | Current stacksize for task 21: unlimited
  | Current stacksize for task 22: unlimited
  | Current stacksize for task 23: unlimited
  | Current stacksize for task 24: unlimited
  | Current stacksize for task 25: unlimited
  | Current stacksize for task 26: unlimited
  | Current stacksize for task 27: unlimited
  | Current stacksize for task 28: unlimited
  | Current stacksize for task 29: unlimited
  | Current stacksize for task 30: unlimited
  | Current stacksize for task 31: unlimited
 
  Consistency checks for the contents of control.in are next.
 
  MPI_IN_PLACE appears to work with this MPI implementation.
  | Keeping use_mpi_in_place .true. (see manual).
  Target number of points in a grid batch is not set. Defaulting to  100
  Method for grid partitioning is not set. Defaulting to parallel hash+maxmin partitioning.
  Batch size limit is not set. Defaulting to    200
  By default, will store active basis functions for each batch.
  If in need of memory, prune_basis_once .false. can be used to disable this option.
  communication_type for Hartree potential was not specified.
  Defaulting to calc_hartree .
  Defaulting to Pulay charge density mixer.
  Pulay mixer: Number of relevant iterations not set.
  Defaulting to    8 iterations.
  Pulay mixer: Number of initial linear mixing iterations not set.
  Defaulting to    0 iterations.
  Work space size for distributed Hartree potential not set.
  Defaulting to   0.200000E+03 MB.
  Mixing parameter for charge density mixing has not been set.
  Using default: charge_mix_param =     0.0500.
  The mixing parameter will be adjusted in iteration number     2 of each s.c.f. cycle (i.e., each geometry step).
  Algorithm-dependent basis array size parameters:
  | n_max_pulay                         :        8
  Maximum number of self-consistency iterations not provided.
  Presetting  1000 iterations.
  Presetting      1001 iterations before the initial mixing cycle
  is restarted anyway using the sc_init_iter criterion / keyword.
  Presetting a factor      1.000 between actual scf density residual
  and density convergence criterion sc_accuracy_rho below which sc_init_iter
  takes no effect.
 * No s.c.f. convergence criteria (sc_accuracy_*) were provided in control.in.
 * The run will proceed with a reasonable default guess, but please check whether.
 * the s.c.f. cycles seem to take too much or too little time.
  No maximum number of relaxation steps, defaulting to     1000
  Default initial Hessian is Lindh matrix (thres = 15.00) plus  0.200000E+01 eV/A^2 times unity.
  No maximum energy tolerance for TRM/BFGS moves, defaulting to   0.150000E-02
  Maximum energy tolerance by which TRM/BFGS trajectory may increase over multiple steps:   0.300000E-02
  No harmonic length scale. Defaulting to   0.250000E-01 A.
  No trust radius initializer. Defaulting to   0.200000E+00 A.
  Forces evaluation will include force correction term due to incomplete self-consistency (default).
 * Notice: The s.c.f. convergence criterion sc_accuracy_rho was not provided.
 * We used to stop in this case, and ask the user to provide reasonable
 * scf convergence criteria. However, this led some users to employ criteria
 * that led to extremely long run times, e.g., for simple relaxation.
 * We now preset a default value for sc_accuracy_rho if it is not set.
 * You may still wish to check if this setting is too tight or too loose for your needs.
 * Based on n_atoms and forces and force-correction status, FHI-aims chose sc_accuracy_rho =  0.800000E-05 .
  Force calculation: scf convergence accuracy of forces not set.
  Defaulting to 'sc_accuracy_forces not_checked'.
  Handling of forces: Unphysical translation and rotation will be removed from forces.
  No accuracy limit for integral partition fn. given. Defaulting to  0.1000E-14.
  No threshold value for u(r) in integrations given. Defaulting to  0.1000E-05.
  No occupation type (smearing scheme) given. Defaulting to Gaussian broadening, width =  0.1000E-01 eV.
  The width will be adjusted in iteration number     2 of each s.c.f. cycle (i.e., each geometry step).
  No accuracy for occupation numbers given. Defaulting to  0.1000E-12.
  No threshold value for occupation numbers given. Defaulting to  0.0000E+00.
  No accuracy for fermi level given. Defaulting to  0.1000E-19.
  Maximum # of iterations to find E_F not set. Defaulting to  200.
  Preferred method for the eigenvalue solver ('KS_method') not specified in 'control.in'.
  Calling BLACS routine to test compilation state
  Since ScaLAPACK support is enabled, defaulting to ELPA (via ELSI).
  Will not use alltoall communication since running on < 1024 CPUs.
  Threshold for basis singularities not set.
  Default threshold for basis singularities:  0.1000E-04
  partition_type (choice of integration weights) for integrals was not specified.
  | Using a version of the partition function of Stratmann and coworkers ('stratmann_sparse').
  | At each grid point, the set of atoms used to build the partition table is smoothly restricted to
  | only those atoms whose free-atom density would be non-zero at that grid point.
  Partitioning for Hartree potential was not defined. Using partition_type for integrals.
  | Adjusted default value of keyword multip_moments_threshold to:       0.10000000E-11
  | This value may affect high angular momentum components of the Hartree potential in periodic systems.
  No q(lm)/r^(l+1) cutoff set for long-range Hartree potential.
  | Using default value of  0.100000E-09 .
  | Verify using the multipole_threshold keyword.
  Defaulting to new monopole extrapolation.
  Density update method: automatic selection selected.
  Geometry relaxation: A file "geometry.in.next_step" is written out by default after each step.
  | This file contains the geometry of the current relaxation step as well as
  | the current Hessian matrix needed to restart the relaxation algorithm.
  | If you do not want part or all of this information, use the keywords
  | "write_restart_geometry" or "hessian_to_restart_geometry" to switch the output off.
  Charge integration errors on the 3D integration grid will be compensated
  by explicit normalization and distribution of residual charges.
  Use the "compensate_multipole_errors" flag to change this behaviour.
  Set 'collect_eigenvectors' to be '.true.' for use_density_matrix .false.
  Found no potential conflicts with setting 'use_local_index' for this calculation.
  Flag 'use_local_index' has not been set.
  Testing whether we classify this calculation as large-scale ...
  The calculation contains less than 100 atoms. This is most likely not a large-scale calculation.
  Not setting 'use_local_index'.
 
  Consistency checks for the contents of geometry.in are next.
 
  Number of empty states per atom not set in control.in - providing a guess from actual geometry.
  | Total number of empty states used during s.c.f. cycle:        9
  If you use a very high smearing, use empty_states (per atom!) in control.in to increase this value.

  Structure-dependent array size parameters: 
  | Maximum number of distinct radial functions  :       29
  | Maximum number of basis functions            :      108
  | Number of Kohn-Sham states (occupied + empty):       17
------------------------------------------------------------
  After read_input_data [GB]:   1032.60

  Performing system and environment tests:
  *** Environment variable OMP_NUM_THREADS is not set
  *** For performance reasons you might want to set it to 1
  | Checking for ScaLAPACK...
  | Testing pdtran()...
  | All pdtran() tests passed.
  After prepare_system [GB]:   1032.44

------------------------------------------------------------
          Preparing all fixed parts of the calculation.
------------------------------------------------------------
  Determining machine precision:
    2.225073858507201E-308
  Setting up grids for atomic and cluster calculations.

  Creating wave function, potential, and density for free atoms.
  Runtime choices for atomic solver:
  | atomic solver xc        : PBE
  | compute density gradient: 1
  | compute kinetic density : F

  Species: C

  List of occupied orbitals and eigenvalues:
    n    l              occ      energy [Ha]    energy [eV]
    1    0           2.0000       -10.049212      -273.4530
    2    0           2.0000        -0.504761       -13.7352
    2    1           2.0000        -0.193631        -5.2690


  Species: O

  List of occupied orbitals and eigenvalues:
    n    l              occ      energy [Ha]    energy [eV]
    1    0           2.0000       -18.927378      -515.0401
    2    0           2.0000        -0.880539       -23.9607
    2    1           4.0000        -0.331811        -9.0290


  Species: H

  List of occupied orbitals and eigenvalues:
    n    l              occ      energy [Ha]    energy [eV]
    1    0           1.0000        -0.238386        -6.4868


  Adding cutoff potential to free-atom effective potential.
  Creating fixed part of basis set: Ionic, confined, hydrogenic.
 
  C                    hydrogenic:
 
  List of hydrogenic basis orbitals: 
    n    l      effective z      eigenvalue [eV]  inner max. [A]     outer max. [A]     outer radius [A]   
    2    1         1.700000        -9.8152           1.245706           1.245706           5.401630
    3    2         6.000000       -54.4226           0.792453           0.792453           4.178599
    2    0         4.900000       -81.6681           0.082559           0.562749           3.353238
    4    3         9.800000       -81.6681           0.863254           0.863254           4.028125
    3    1         5.200000       -40.8774           0.305389           1.215618           4.898362
    3    0         4.300000       -27.9508           0.091041           1.610311           5.401630
    5    4        14.400000      -112.8510           0.917666           0.917666           3.883070
    3    2         6.200000       -58.1113           0.763917           0.763917           4.077671
 
 
  O                    hydrogenic:
 
  List of hydrogenic basis orbitals: 
    n    l      effective z      eigenvalue [eV]  inner max. [A]     outer max. [A]     outer radius [A]   
    2    1         1.800000       -11.0118           1.178562           1.178562           5.432602
    3    2         7.600000       -87.3182           0.624125           0.624125           3.541477
    3    0         6.400000       -61.9209           0.061167           1.081902           4.306578
    4    3        11.600000      -114.4238           0.731631           0.731631           3.585037
    3    1         6.200000       -58.1113           0.255680           1.030270           4.306578
    3    2         5.600000       -47.4081           0.847233           0.847233           4.413171
    5    4        17.600000      -168.5799           0.749740           0.749740           3.372465
    1    0         0.750000        -7.6499           0.705284           0.705284           5.366593
 
 
  H                    hydrogenic:
 
  List of hydrogenic basis orbitals: 
    n    l      effective z      eigenvalue [eV]  inner max. [A]     outer max. [A]     outer radius [A]   
    2    0         2.100000       -14.9965           0.193243           1.317208           5.373006
    2    1         3.500000       -41.6672           0.602369           0.602369           4.056063
    1    0         0.850000        -9.8292           0.624871           0.624871           5.373006
    2    1         3.700000       -46.5653           0.573622           0.573622           3.910002
    2    0         1.200000        -4.5995           0.334980           2.228188           5.505995
    3    2         7.000000       -74.0753           0.680699           0.680699           3.769201
 
  Creating atomic-like basis functions for current effective potential.

  Species C                   :

  List of atomic basis orbitals and eigenvalues:
    n    l      energy [Ha]    energy [eV]    outer radius [A]
    1    0       -10.049212      -273.4530       1.934409
    2    0        -0.504761       -13.7352       5.271162
    2    1        -0.193631        -5.2690       5.401630


  Species O                   :

  List of atomic basis orbitals and eigenvalues:
    n    l      energy [Ha]    energy [eV]    outer radius [A]
    1    0       -18.927378      -515.0401       1.415765
    2    0        -0.880539       -23.9607       5.048385
    2    1        -0.331811        -9.0290       5.301386


  Species H                   :

  List of atomic basis orbitals and eigenvalues:
    n    l      energy [Ha]    energy [eV]    outer radius [A]
    1    0        -0.238386        -6.4868       5.373006

  Assembling full basis from fixed parts.
  | Species C :   atomic orbital   1 s accepted.
  | Species C :    hydro orbital   2 s accepted.
  | Species C :   atomic orbital   2 s accepted.
  | Species C :    hydro orbital   3 s accepted.
  | Species C :    hydro orbital   3 p accepted.
  | Species C :   atomic orbital   2 p accepted.
  | Species C :    hydro orbital   2 p accepted.
  | Species C :    hydro orbital   3 d accepted.
  | Species C :    hydro orbital   3 d accepted.
  | Species C :    hydro orbital   4 f accepted.
  | Species C :    hydro orbital   5 g accepted.
  | Species O :   atomic orbital   1 s accepted.
  | Species O :    hydro orbital   3 s accepted.
  | Species O :   atomic orbital   2 s accepted.
  | Species O :    hydro orbital   1 s accepted.
  | Species O :    hydro orbital   3 p accepted.
  | Species O :   atomic orbital   2 p accepted.
  | Species O :    hydro orbital   2 p accepted.
  | Species O :    hydro orbital   3 d accepted.
  | Species O :    hydro orbital   3 d accepted.
  | Species O :    hydro orbital   4 f accepted.
  | Species O :    hydro orbital   5 g accepted.
  | Species H :   atomic orbital   1 s accepted.
  | Species H :    hydro orbital   2 s accepted.
  | Species H :    hydro orbital   1 s accepted.
  | Species H :    hydro orbital   2 s accepted.
  | Species H :    hydro orbital   2 p accepted.
  | Species H :    hydro orbital   2 p accepted.
  | Species H :    hydro orbital   3 d accepted.
 
  Basis size parameters after reduction:
  | Total number of radial functions:       29
  | Total number of basis functions :      108
 
  Per-task memory consumption for arrays in subroutine allocate_ext:
  |           9.663076MB.
  Testing on-site integration grid accuracy.
  |  Species  Function  <phi|h_atom|phi> (log., in eV)  <phi|h_atom|phi> (rad., in eV)
           1        1               -273.4529725981               -273.4529710451
           1        2                -10.7721037329                -10.7721022102
           1        3                 17.6044132585                 17.6044162052
           1        4                 53.7706460564                 53.7706913681
           1        5                 15.0973290351                 15.0973256011
           1        6                  3.8545134677                  3.8545724657
           1        7                 12.1156992586                 12.1182024423
           1        8                 29.4352039288                 29.4352041805
           1        9                 54.8741144697                 54.8740268719
           1       10                 59.3556032036                 59.3556031370
           1       11                 93.4551837140                 93.4551837996
           2       12               -515.0401491148               -515.0401445497
           2       13                 15.1629302771                 15.1629233102
           2       14                -21.6127103295                -21.6127145449
           2       15                 14.4001435709                 14.4001765990
           2       16                 20.8862585187                 20.8862589491
           2       17                 -2.4803658578                 -2.4803665016
           2       18                 13.8586387760                 13.8586021622
           2       19                 45.8331828879                 45.8331828941
           2       20                 52.1851961049                 52.1851977023
           2       21                 85.4133898762                 85.4133899074
           2       22                142.1023296234                142.1023296272
           3       23                 -6.4870767962                 -6.4871688290
           3       24                 13.5032046589                 13.5028982997
           3       25                 32.8195184817                 32.8119941656
           3       26                 33.8513856511                 33.7670005767 ***
           3       27                 28.8544614965                 28.8544615203
           3       28                 59.6326952547                 59.6327656460
           3       29                 60.2719308513                 60.2719305949
 * Note: Onsite integrals marked "***" above are less accurate than
 * onsite_accuracy_threshold =    0.03000 eV. Usually, this is harmless.
 * When in doubt, tighten the "radial" and/or "radial_multiplier" flags to check.

  Preparing densities etc. for the partition functions (integrals / Hartree potential).

  Preparations completed.
  max(cpu_time)          :      0.177 s.
  Wall clock time (cpu1) :      0.173 s.
------------------------------------------------------------
  After prepare_scf [GB]:   1030.73

  Initializing index lists of integration centers etc. from given atomic structure:
  | Number of centers in hartree potential         :         4
  | Number of centers in hartree multipole         :         4
  | Number of centers in electron density summation:         4
  | Number of centers in basis integrals           :         4
  | Number of centers in integrals                 :         4
  | Number of centers in hamiltonian               :         4
  After initialize_bc_dependent_lists [GB]:   1030.73

------------------------------------------------------------
          Begin self-consistency loop: Initialization.

          Date     :  20250311, Time     :  172445.411
------------------------------------------------------------

  Initializing relaxation algorithms.
  Finished initialization of distributed Hessian storage.
  | Global dimension:        12
  | BLACS block size:         1
  | Number of workers:       12

  Available memory per node after initialize_hartree_non_periodic_ewald [GB]:   1030.74
  Available memory per node after initialize_recip_hartree_potential [GB]:   1030.74
  * Using 32 tasks for Scalapack Eigenvalue solver.
  Detailed listing of tasks and assigned k-points:
  (for non-periodic systems, the "k-point" denotes an internal label only)
   Task     0 k-point     1 on RSL-arvutus
   Task     1 k-point     1 on RSL-arvutus
   Task     2 k-point     1 on RSL-arvutus
   Task     3 k-point     1 on RSL-arvutus
   Task     4 k-point     1 on RSL-arvutus
   Task     5 k-point     1 on RSL-arvutus
   Task     6 k-point     1 on RSL-arvutus
   Task     7 k-point     1 on RSL-arvutus
   Task     8 k-point     1 on RSL-arvutus
   Task     9 k-point     1 on RSL-arvutus
   Task    10 k-point     1 on RSL-arvutus
   Task    11 k-point     1 on RSL-arvutus
   Task    12 k-point     1 on RSL-arvutus
   Task    13 k-point     1 on RSL-arvutus
   Task    14 k-point     1 on RSL-arvutus
   Task    15 k-point     1 on RSL-arvutus
   Task    16 k-point     1 on RSL-arvutus
   Task    17 k-point     1 on RSL-arvutus
   Task    18 k-point     1 on RSL-arvutus
   Task    19 k-point     1 on RSL-arvutus
   Task    20 k-point     1 on RSL-arvutus
   Task    21 k-point     1 on RSL-arvutus
   Task    22 k-point     1 on RSL-arvutus
   Task    23 k-point     1 on RSL-arvutus
   Task    24 k-point     1 on RSL-arvutus
   Task    25 k-point     1 on RSL-arvutus
   Task    26 k-point     1 on RSL-arvutus
   Task    27 k-point     1 on RSL-arvutus
   Task    28 k-point     1 on RSL-arvutus
   Task    29 k-point     1 on RSL-arvutus
   Task    30 k-point     1 on RSL-arvutus
   Task    31 k-point     1 on RSL-arvutus
  Tasks:    32 split into      8 X      4 BLACS grid
  Calculating block size based on n_basis =          108  max_nprow =            8  max_npcol =            4
  ScaLAPACK block size set to:            8
  Allocating        0.004 MB for ovlp
  Allocating        0.004 MB for ham
  Allocating        0.004 MB for eigenvec
  Required Scalapack workspace - INTEGER:            1  REAL:             1
  Available memory per node after initialize_scalapack [GB]:   1030.80
  Available memory per node after aims_elsi_init_scf [GB]:   1030.80
  Available memory per node after initialize_fixed_grids [GB]:   1030.80
  Partitioning the integration grid into batches with parallel hashing+maxmin method.
  | Number of batches:      960
  | Maximal batch size:     197
  | Minimal batch size:      22
  | Average batch size:      69.912
  | Standard deviation of batch sizes:      20.100

  Integration load balanced across    32 MPI tasks.
  Work distribution over tasks is as follows:
  Task     0 has       2050 integration points.
  Task     1 has       2219 integration points.
  Task     2 has       2157 integration points.
  Task     3 has       2050 integration points.
  Task     4 has       2092 integration points.
  Task     5 has       2068 integration points.
  Task     6 has       2110 integration points.
  Task     7 has       2079 integration points.
  Task     8 has       2055 integration points.
  Task     9 has       2053 integration points.
  Task    10 has       2063 integration points.
  Task    11 has       2056 integration points.
  Task    12 has       2144 integration points.
  Task    13 has       2051 integration points.
  Task    14 has       2096 integration points.
  Task    15 has       2050 integration points.
  Task    16 has       2088 integration points.
  Task    17 has       2140 integration points.
  Task    18 has       2224 integration points.
  Task    19 has       2065 integration points.
  Task    20 has       2075 integration points.
  Task    21 has       2072 integration points.
  Task    22 has       2067 integration points.
  Task    23 has       2082 integration points.
  Task    24 has       2085 integration points.
  Task    25 has       2072 integration points.
  Task    26 has       2047 integration points.
  Task    27 has       2153 integration points.
  Task    28 has       2144 integration points.
  Task    29 has       2077 integration points.
  Task    30 has       2184 integration points.
  Task    31 has       2148 integration points.
  Available memory per node after partition_grid [GB]:   1030.80
  Initializing partition tables, free-atom densities, potentials, etc. across the integration grid (initialize_grid_storage).
  | initialize_grid_storage: Actual outermost partition radius vs. multipole_radius_free
  | (-- VB: in principle, multipole_radius_free should be larger, hence this output)
  | Species        1: Confinement radius =              6.000000000000000 AA, multipole_radius_free =              6.029870734432609 AA.
  | Species        1: outer_partition_radius set to              6.029870734432609 AA .
  | Species        2: Confinement radius =              6.000000000000000 AA, multipole_radius_free =              6.064445521808699 AA.
  | Species        2: outer_partition_radius set to              6.064445521808699 AA .
  | Species        3: Confinement radius =              6.000000000000000 AA, multipole_radius_free =              6.071692442739658 AA.
  | Species        3: outer_partition_radius set to              6.071692442739658 AA .
  | The sparse table of interatomic distances needs          0.16 kbyte instead of         0.13 kbyte of memory.
  | Using the partition_type stratmann_smoother will reduce your memory usage.
  | Net number of integration points:    67116
  | of which are non-zero points    :    59802
  Available memory per node after initialize_grid_storage_p1 [GB]:   1030.80
  Renormalizing the initial density to the exact electron count on the 3D integration grid.
  | Initial density: Formal number of electrons (from input files) :      16.0000000000
  | Integrated number of electrons on 3D grid     :      15.9999985110
  | Charge integration error                      :      -0.0000014890
  | Normalization factor for density and gradient :       1.0000000931
  Renormalizing the free-atom superposition density to the exact electron count on the 3D integration grid.
  | Formal number of electrons (from input files) :      16.0000000000
  | Integrated number of electrons on 3D grid     :      15.9999985110
  | Charge integration error                      :      -0.0000014890
  | Normalization factor for density and gradient :       1.0000000931
  Obtaining max. number of non-zero basis functions in each batch (get_n_compute_maxes).
  | Maximal number of non-zero basis functions:      108 in task     0
  | Maximal number of non-zero basis functions:      108 in task     1
  | Maximal number of non-zero basis functions:      108 in task     2
  | Maximal number of non-zero basis functions:      108 in task     3
  | Maximal number of non-zero basis functions:      108 in task     4
  | Maximal number of non-zero basis functions:      108 in task     5
  | Maximal number of non-zero basis functions:      108 in task     6
  | Maximal number of non-zero basis functions:      108 in task     7
  | Maximal number of non-zero basis functions:      108 in task     8
  | Maximal number of non-zero basis functions:      108 in task     9
  | Maximal number of non-zero basis functions:      108 in task    10
  | Maximal number of non-zero basis functions:      108 in task    11
  | Maximal number of non-zero basis functions:      108 in task    12
  | Maximal number of non-zero basis functions:      108 in task    13
  | Maximal number of non-zero basis functions:      108 in task    14
  | Maximal number of non-zero basis functions:      108 in task    15
  | Maximal number of non-zero basis functions:      108 in task    16
  | Maximal number of non-zero basis functions:      108 in task    17
  | Maximal number of non-zero basis functions:      108 in task    18
  | Maximal number of non-zero basis functions:      108 in task    19
  | Maximal number of non-zero basis functions:      108 in task    20
  | Maximal number of non-zero basis functions:      108 in task    21
  | Maximal number of non-zero basis functions:      108 in task    22
  | Maximal number of non-zero basis functions:      108 in task    23
  | Maximal number of non-zero basis functions:      108 in task    24
  | Maximal number of non-zero basis functions:      108 in task    25
  | Maximal number of non-zero basis functions:      108 in task    26
  | Maximal number of non-zero basis functions:      108 in task    27
  | Maximal number of non-zero basis functions:      108 in task    28
  | Maximal number of non-zero basis functions:      108 in task    29
  | Maximal number of non-zero basis functions:      108 in task    30
  | Maximal number of non-zero basis functions:      108 in task    31
  Selecting the method for density update.
  Loop over occupied states selected for charge density update.
  Available memory per node after get_n_compute_maxes_p1 [GB]:   1030.80
  Allocating        0.014 MB for KS_eigenvector
  Available memory per node after allocate_matrices [GB]:   1030.80
  Available memory per node after init_comm_sparse_local_matrix_scalapack [GB]:   1030.80
  Integrating Hamiltonian matrix: batch-based integration.
  Time summed over all CPUs for integration: real work        0.273 s, elapsed        0.291 s
  Available memory per node after integrate hamiltonian matrix [GB]:   1030.80
  Integrating overlap matrix.
  Time summed over all CPUs for integration: real work        0.129 s, elapsed        0.138 s
  Available memory per node after integrate ovlp matrix [GB]:   1030.80
  Available memory per node after ASI_callbacks invoke [GB]:   1030.80
  Deallocating overlap matrix.
  Available memory per node after save_overlap_scalapack [GB]:   1030.80

  Updating Kohn-Sham eigenvalues and eigenvectors using ELSI and the ELPA eigensolver.
  Overlap matrix is not singular
  | Lowest and highest eigenvalues :  0.2279E-03,  0.3762E+01
  Finished singularity check of overlap matrix
  | Time :     0.006 s
  Starting ELPA eigensolver
  Finished Cholesky decomposition
  | Time :     0.002 s
  Finished transformation to standard eigenproblem
  | Time :     0.001 s
  Finished solving standard eigenproblem
  | Time :     0.003 s
  Finished back-transformation of eigenvectors
  | Time :     0.000 s

  Obtaining occupation numbers and electronic chemical potential using ELSI.
  | Note that, for insulating systems, the printed 'chemical potential' value is not uniquely defined.
  | It can be anywhere in the energy gap, as long as it correctly separates occupied and unoccupied states.
  | In systems with a gap, the physically relevant chemical potential is the VBM or HOMO.

  | Chemical potential (Fermi level):    -7.11211270 eV
  Available memory per node after advance_KS_solution [GB]:   1030.80
  Writing Kohn-Sham eigenvalues.

  State    Occupation    Eigenvalue [Ha]    Eigenvalue [eV]
      1       2.00000         -19.003640         -517.11537
      2       2.00000         -10.152594         -276.26613
      3       2.00000          -1.123018          -30.55887
      4       2.00000          -0.700471          -19.06077
      5       2.00000          -0.567920          -15.45390
      6       2.00000          -0.550597          -14.98251
      7       2.00000          -0.482205          -13.12147
      8       2.00000          -0.367228           -9.99279
      9       0.00000          -0.202149           -5.50075
     10       0.00000          -0.028386           -0.77242
     11       0.00000           0.009347            0.25434
     12       0.00000           0.031804            0.86543
     13       0.00000           0.088084            2.39689
     14       0.00000           0.100285            2.72889
     15       0.00000           0.130735            3.55748
     16       0.00000           0.148698            4.04627
     17       0.00000           0.188449            5.12797

  Highest occupied state (VBM) at     -9.99279407 eV
  | Occupation number:      2.00000000

  Lowest unoccupied state (CBM) at    -5.50074857 eV
  | Occupation number:      0.00000000

  Overall HOMO-LUMO gap:      4.49204550 eV.
  Calculating total energy contributions from superposition of free atom densities.

  Total energy components:
  | Sum of eigenvalues            :         -65.89534734 Ha       -1793.10363331 eV
  | XC energy correction          :         -14.28657094 Ha        -388.75737511 eV
  | XC potential correction       :          18.35632057 Ha         499.50089703 eV
  | Free-atom electrostatic energy:         -52.78459213 Ha       -1436.34183218 eV
  | Hartree energy correction     :           0.00000000 Ha           0.00000000 eV
  | Entropy correction            :           0.00000000 Ha           0.00000000 eV
  | ---------------------------
  | Total energy                  :        -114.61018985 Ha       -3118.70194358 eV
  | Total energy, T -> 0          :        -114.61018985 Ha       -3118.70194358 eV  <-- do not rely on this value for anything but (periodic) metals
  | Electronic free energy        :        -114.61018985 Ha       -3118.70194358 eV

  Derived energy quantities:
  | Kinetic energy                :         113.56967287 Ha        3090.38803601 eV
  | Electrostatic energy          :        -213.89329178 Ha       -5820.33260448 eV
  | Energy correction for multipole
  | error in Hartree potential    :           0.00000000 Ha           0.00000000 eV
  | Sum of eigenvalues per atom                           :        -448.27590833 eV
  | Total energy (T->0) per atom                          :        -779.67548590 eV  <-- do not rely on this value for anything but (periodic) metals
  | Electronic free energy per atom                       :        -779.67548590 eV
  Initialize hartree_potential_storage
  Max. number of atoms included in rho_multipole:            4

  End scf initialization - timings             :  max(cpu_time)    wall_clock(cpu1)
  | Time for scf. initialization                :        0.062 s           0.063 s
  | Boundary condition initialization           :        0.018 s           0.018 s
  | Relaxation initialization                   :        0.001 s           0.001 s
  | Integration                                 :        0.014 s           0.014 s
  | Solution of K.-S. eqns.                     :        0.014 s           0.014 s
  | Grid partitioning                           :        0.017 s           0.016 s
  | Preloading free-atom quantities on grid     :        0.011 s           0.012 s
  | Free-atom superposition energy              :        0.001 s           0.001 s
  | Total energy evaluation                     :        0.000 s           0.000 s

  Partial memory accounting:
  | Current value for overall tracked memory usage:
  |   Minimum:        0.068 MB (on task 26)
  |   Maximum:        0.076 MB (on task  0)
  |   Average:        0.072 MB
  | Peak value for overall tracked memory usage:
  |   Minimum:        0.692 MB (on task 26 after allocating wave)
  |   Maximum:        0.699 MB (on task  0 after allocating wave)
  |   Average:        0.695 MB
  | Largest tracked array allocation so far:
  |   Minimum:        0.162 MB (H_times_psi on task  0)
  |   Maximum:        0.232 MB (all_coords on task 13)
  |   Average:        0.168 MB
  Note:  These values currently only include a subset of arrays which are explicitly tracked.
  The "true" memory usage will be greater.
------------------------------------------------------------
  Available memory after initialize_scf [GB]:   1030.80
  Available memory after allocating mixing [GB]:   1030.80
  Evaluating new KS density.
  Integration grid: deviation in total charge (<rho> - N_e) =   1.065814E-14

  Time for density update prior                :  max(cpu_time)    wall_clock(cpu1)
  | self-consistency iterative process          :        0.007 s           0.006 s
  Available memory before start of SCF loop [GB]:   1030.80

------------------------------------------------------------
          Begin self-consistency iteration #    1

  Date     :  20250311, Time     :  172445.480
------------------------------------------------------------
  Pulay mixing of updated and previous charge densities.
  Available memory per node after mixing [GB]:   1030.80
  Renormalizing the density to the exact electron count on the 3D integration grid.
  | Formal number of electrons (from input files) :      16.0000000000
  | Integrated number of electrons on 3D grid     :      16.0000000000
  | Charge integration error                      :       0.0000000000
  | Normalization factor for density and gradient :       1.0000000000

  Evaluating partitioned Hartree potential by multipole expansion.
  | Original multipole sum: apparent total charge =   0.104402E-13
  | Sum of charges compensated after spline to logarithmic grids =   0.874085E-07
  | Analytical far-field extrapolation by fixed multipoles:
  | Hartree multipole sum: apparent total charge =   0.104709E-13
  Summing up the Hartree potential.
  Time summed over all CPUs for potential: real work        0.003 s, elapsed        0.003 s
  | RMS charge density error from multipole expansion :   0.256824E-03

  Integrating Hamiltonian matrix: batch-based integration.
  Time summed over all CPUs for integration: real work        0.230 s, elapsed        0.252 s

  Updating Kohn-Sham eigenvalues and eigenvectors using ELSI and the ELPA eigensolver.
  Starting ELPA eigensolver
  Finished transformation to standard eigenproblem
  | Time :     0.001 s
  Finished solving standard eigenproblem
  | Time :     0.001 s
  Finished back-transformation of eigenvectors
  | Time :     0.000 s

  Obtaining occupation numbers and electronic chemical potential using ELSI.
  | Note that, for insulating systems, the printed 'chemical potential' value is not uniquely defined.
  | It can be anywhere in the energy gap, as long as it correctly separates occupied and unoccupied states.
  | In systems with a gap, the physically relevant chemical potential is the VBM or HOMO.

  | Chemical potential (Fermi level):    -7.00953071 eV
  Writing Kohn-Sham eigenvalues.

  State    Occupation    Eigenvalue [Ha]    Eigenvalue [eV]
      1       2.00000         -18.972768         -516.27528
      2       2.00000         -10.139283         -275.90393
      3       2.00000          -1.106178          -30.10065
      4       2.00000          -0.691715          -18.82253
      5       2.00000          -0.557935          -15.18219
      6       2.00000          -0.534885          -14.55496
      7       2.00000          -0.468450          -12.74717
      8       2.00000          -0.353012           -9.60595
      9       0.00000          -0.192659           -5.24250
     10       0.00000          -0.026839           -0.73032
     11       0.00000           0.010983            0.29885
     12       0.00000           0.036099            0.98230
     13       0.00000           0.090246            2.45571
     14       0.00000           0.102509            2.78942
     15       0.00000           0.135095            3.67613
     16       0.00000           0.152999            4.16330
     17       0.00000           0.191569            5.21285

  Highest occupied state (VBM) at     -9.60594976 eV
  | Occupation number:      2.00000000

  Lowest unoccupied state (CBM) at    -5.24250486 eV
  | Occupation number:      0.00000000

  Overall HOMO-LUMO gap:      4.36344490 eV.

  Total energy components:
  | Sum of eigenvalues            :         -65.64845418 Ha       -1786.38532845 eV
  | XC energy correction          :         -14.31296797 Ha        -389.47567475 eV
  | XC potential correction       :          18.39072317 Ha         500.43703951 eV
  | Free-atom electrostatic energy:         -52.78459213 Ha       -1436.34183218 eV
  | Hartree energy correction     :          -0.24161817 Ha          -6.57476484 eV
  | Entropy correction            :           0.00000000 Ha           0.00000000 eV
  | ---------------------------
  | Total energy                  :        -114.59690927 Ha       -3118.34056071 eV
  | Total energy, T -> 0          :        -114.59690927 Ha       -3118.34056071 eV  <-- do not rely on this value for anything but (periodic) metals
  | Electronic free energy        :        -114.59690927 Ha       -3118.34056071 eV

  Derived energy quantities:
  | Kinetic energy                :         113.71205404 Ha        3094.26242464 eV
  | Electrostatic energy          :        -213.99599534 Ha       -5823.12731060 eV
  | Energy correction for multipole
  | error in Hartree potential    :          -0.00029881 Ha          -0.00813099 eV
  | Sum of eigenvalues per atom                           :        -446.59633211 eV
  | Total energy (T->0) per atom                          :        -779.58514018 eV  <-- do not rely on this value for anything but (periodic) metals
  | Electronic free energy per atom                       :        -779.58514018 eV
  Evaluating new KS density.
  Integration grid: deviation in total charge (<rho> - N_e) =   1.421085E-14

  Self-consistency convergence accuracy:
  | Change of charge density      :  0.3347E+00
  | Change of unmixed KS density  :  0.1071E+02
  | Change of sum of eigenvalues  :  0.6718E+01 eV
  | Change of total energy        :  0.3614E+00 eV


------------------------------------------------------------
  End self-consistency iteration #     1       :  max(cpu_time)    wall_clock(cpu1)
  | Time for this iteration                     :        0.022 s           0.023 s
  | Charge density update                       :        0.006 s           0.006 s
  | Density mixing                              :        0.000 s           0.001 s
  | Hartree multipole update                    :        0.001 s           0.001 s
  | Hartree multipole summation                 :        0.004 s           0.004 s
  | Integration                                 :        0.008 s           0.008 s
  | Solution of K.-S. eqns.                     :        0.003 s           0.003 s
  | Total energy evaluation                     :        0.000 s           0.000 s

  Partial memory accounting:
  | Current value for overall tracked memory usage:
  |   Minimum:        1.208 MB (on task 26)
  |   Maximum:        1.311 MB (on task 18)
  |   Average:        1.240 MB
  | Peak value for overall tracked memory usage:
  |   Minimum:        1.858 MB (on task 26 after allocating gradient_basis_wave)
  |   Maximum:        1.961 MB (on task 18 after allocating gradient_basis_wave)
  |   Average:        1.890 MB
  | Largest tracked array allocation so far:
  |   Minimum:        0.487 MB (gradient_basis_wave on task  0)
  |   Maximum:        0.487 MB (gradient_basis_wave on task  0)
  |   Average:        0.487 MB
  Note:  These values currently only include a subset of arrays which are explicitly tracked.
  The "true" memory usage will be greater.
------------------------------------------------------------

------------------------------------------------------------
          Begin self-consistency iteration #    2

  Date     :  20250311, Time     :  172445.503
------------------------------------------------------------
  Pulay mixing of updated and previous charge densities.
  Available memory per node after mixing [GB]:   1030.80
  Renormalizing the density to the exact electron count on the 3D integration grid.
  | Formal number of electrons (from input files) :      16.0000000000
  | Integrated number of electrons on 3D grid     :      16.0000000000
  | Charge integration error                      :       0.0000000000
  | Normalization factor for density and gradient :       1.0000000000

  Evaluating partitioned Hartree potential by multipole expansion.
  | Original multipole sum: apparent total charge =   0.795737E-14
  | Sum of charges compensated after spline to logarithmic grids =   0.348037E-06
  | Analytical far-field extrapolation by fixed multipoles:
  | Hartree multipole sum: apparent total charge =   0.807421E-14
  Summing up the Hartree potential.
  Time summed over all CPUs for potential: real work        0.003 s, elapsed        0.003 s
  | RMS charge density error from multipole expansion :   0.196428E-02

  Integrating Hamiltonian matrix: batch-based integration.
  Time summed over all CPUs for integration: real work        0.229 s, elapsed        0.249 s

  Updating Kohn-Sham eigenvalues and eigenvectors using ELSI and the ELPA eigensolver.
  Starting ELPA eigensolver
  Finished transformation to standard eigenproblem
  | Time :     0.000 s
  Finished solving standard eigenproblem
  | Time :     0.002 s
  Finished back-transformation of eigenvectors
  | Time :     0.000 s

  Obtaining occupation numbers and electronic chemical potential using ELSI.
  | Note that, for insulating systems, the printed 'chemical potential' value is not uniquely defined.
  | It can be anywhere in the energy gap, as long as it correctly separates occupied and unoccupied states.
  | In systems with a gap, the physically relevant chemical potential is the VBM or HOMO.

  | Chemical potential (Fermi level):    -6.32240080 eV
  Highest occupied state (VBM) at     -7.14604268 eV
  | Occupation number:      2.00000000

  Lowest unoccupied state (CBM) at    -3.53642607 eV
  | Occupation number:      0.00000000

  Overall HOMO-LUMO gap:      3.60961661 eV.

  Checking to see if s.c.f. parameters should be adjusted.
  The system likely has a gap. Increased the default Pulay mixing parameter (charge_mix_param). Value:   0.200000 .
  Kept the default occupation width. Value:   0.010000 eV.

  Total energy components:
  | Sum of eigenvalues            :         -64.10774953 Ha       -1744.46062192 eV
  | XC energy correction          :         -14.48706897 Ha        -394.21320411 eV
  | XC potential correction       :          18.61742303 Ha         506.60585659 eV
  | Free-atom electrostatic energy:         -52.78459213 Ha       -1436.34183218 eV
  | Hartree energy correction     :          -1.78946055 Ha         -48.69369914 eV
  | Entropy correction            :           0.00000000 Ha           0.00000000 eV
  | ---------------------------
  | Total energy                  :        -114.55144815 Ha       -3117.10350075 eV
  | Total energy, T -> 0          :        -114.55144815 Ha       -3117.10350075 eV  <-- do not rely on this value for anything but (periodic) metals
  | Electronic free energy        :        -114.55144815 Ha       -3117.10350075 eV

  Derived energy quantities:
  | Kinetic energy                :         114.52214299 Ha        3116.30606660 eV
  | Electrostatic energy          :        -214.58652217 Ha       -5839.19636325 eV
  | Energy correction for multipole
  | error in Hartree potential    :          -0.00229458 Ha          -0.06243873 eV
  | Sum of eigenvalues per atom                           :        -436.11515548 eV
  | Total energy (T->0) per atom                          :        -779.27587519 eV  <-- do not rely on this value for anything but (periodic) metals
  | Electronic free energy per atom                       :        -779.27587519 eV
  Evaluating new KS density.
  Integration grid: deviation in total charge (<rho> - N_e) =   0.000000E+00

  Self-consistency convergence accuracy:
  | Change of charge density      :  0.3041E+00
  | Change of unmixed KS density  :  0.2643E-01
  | Change of sum of eigenvalues  :  0.4192E+02 eV
  | Change of total energy        :  0.1237E+01 eV


------------------------------------------------------------
  End self-consistency iteration #     2       :  max(cpu_time)    wall_clock(cpu1)
  | Time for this iteration                     :        0.021 s           0.021 s
  | Charge density update                       :        0.005 s           0.005 s
  | Density mixing                              :        0.000 s           0.000 s
  | Hartree multipole update                    :        0.001 s           0.001 s
  | Hartree multipole summation                 :        0.003 s           0.004 s
  | Integration                                 :        0.008 s           0.008 s
  | Solution of K.-S. eqns.                     :        0.003 s           0.003 s
  | Total energy evaluation                     :        0.000 s           0.000 s

  Partial memory accounting:
  | Current value for overall tracked memory usage:
  |   Minimum:        1.209 MB (on task 26)
  |   Maximum:        1.312 MB (on task 18)
  |   Average:        1.241 MB
  | Peak value for overall tracked memory usage:
  |   Minimum:        1.858 MB (on task 26 after allocating gradient_basis_wave)
  |   Maximum:        1.961 MB (on task 18 after allocating gradient_basis_wave)
  |   Average:        1.890 MB
  | Largest tracked array allocation so far:
  |   Minimum:        0.487 MB (gradient_basis_wave on task  0)
  |   Maximum:        0.487 MB (gradient_basis_wave on task  0)
  |   Average:        0.487 MB
  Note:  These values currently only include a subset of arrays which are explicitly tracked.
  The "true" memory usage will be greater.
------------------------------------------------------------

------------------------------------------------------------
          Begin self-consistency iteration #    3

  Date     :  20250311, Time     :  172445.524
------------------------------------------------------------
  Pulay mixing of updated and previous charge densities.
  Available memory per node after mixing [GB]:   1030.80
  Renormalizing the density to the exact electron count on the 3D integration grid.
  | Formal number of electrons (from input files) :      16.0000000000
  | Integrated number of electrons on 3D grid     :      16.0000000000
  | Charge integration error                      :      -0.0000000000
  | Normalization factor for density and gradient :       1.0000000000

  Evaluating partitioned Hartree potential by multipole expansion.
  | Original multipole sum: apparent total charge =   0.610024E-14
  | Sum of charges compensated after spline to logarithmic grids =   0.103261E-06
  | Analytical far-field extrapolation by fixed multipoles:
  | Hartree multipole sum: apparent total charge =   0.582351E-14
  Summing up the Hartree potential.
  Time summed over all CPUs for potential: real work        0.003 s, elapsed        0.003 s
  | RMS charge density error from multipole expansion :   0.324217E-02

  Integrating Hamiltonian matrix: batch-based integration.
  Time summed over all CPUs for integration: real work        0.229 s, elapsed        0.248 s

  Updating Kohn-Sham eigenvalues and eigenvectors using ELSI and the ELPA eigensolver.
  Starting ELPA eigensolver
  Finished transformation to standard eigenproblem
  | Time :     0.001 s
  Finished solving standard eigenproblem
  | Time :     0.002 s
  Finished back-transformation of eigenvectors
  | Time :     0.000 s

  Obtaining occupation numbers and electronic chemical potential using ELSI.
  | Note that, for insulating systems, the printed 'chemical potential' value is not uniquely defined.
  | It can be anywhere in the energy gap, as long as it correctly separates occupied and unoccupied states.
  | In systems with a gap, the physically relevant chemical potential is the VBM or HOMO.

  | Chemical potential (Fermi level):    -6.05825988 eV
  Highest occupied state (VBM) at     -7.05244538 eV
  | Occupation number:      2.00000000

  Lowest unoccupied state (CBM) at    -3.14182641 eV
  | Occupation number:      0.00000000

  Overall HOMO-LUMO gap:      3.91061897 eV.

  Total energy components:
  | Sum of eigenvalues            :         -63.93812317 Ha       -1739.84485370 eV
  | XC energy correction          :         -14.51958737 Ha        -395.09807469 eV
  | XC potential correction       :          18.65854388 Ha         507.72481184 eV
  | Free-atom electrostatic energy:         -52.78459213 Ha       -1436.34183218 eV
  | Hartree energy correction     :          -1.96017402 Ha         -53.33904895 eV
  | Entropy correction            :           0.00000000 Ha           0.00000000 eV
  | ---------------------------
  | Total energy                  :        -114.54393280 Ha       -3116.89899768 eV
  | Total energy, T -> 0          :        -114.54393280 Ha       -3116.89899768 eV  <-- do not rely on this value for anything but (periodic) metals
  | Electronic free energy        :        -114.54393280 Ha       -3116.89899768 eV

  Derived energy quantities:
  | Kinetic energy                :         114.29865663 Ha        3110.22469348 eV
  | Electrostatic energy          :        -214.32300207 Ha       -5832.02561647 eV
  | Energy correction for multipole
  | error in Hartree potential    :          -0.00361730 Ha          -0.09843175 eV
  | Sum of eigenvalues per atom                           :        -434.96121343 eV
  | Total energy (T->0) per atom                          :        -779.22474942 eV  <-- do not rely on this value for anything but (periodic) metals
  | Electronic free energy per atom                       :        -779.22474942 eV
  Evaluating new KS density.
  Integration grid: deviation in total charge (<rho> - N_e) =   1.421085E-14

  Self-consistency convergence accuracy:
  | Change of charge density      :  0.1757E+00
  | Change of unmixed KS density  :  0.1603E+00
  | Change of sum of eigenvalues  :  0.4616E+01 eV
  | Change of total energy        :  0.2045E+00 eV


------------------------------------------------------------
  End self-consistency iteration #     3       :  max(cpu_time)    wall_clock(cpu1)
  | Time for this iteration                     :        0.022 s           0.022 s
  | Charge density update                       :        0.006 s           0.006 s
  | Density mixing                              :        0.000 s           0.001 s
  | Hartree multipole update                    :        0.001 s           0.001 s
  | Hartree multipole summation                 :        0.003 s           0.003 s
  | Integration                                 :        0.008 s           0.008 s
  | Solution of K.-S. eqns.                     :        0.003 s           0.003 s
  | Total energy evaluation                     :        0.000 s           0.000 s

  Partial memory accounting:
  | Current value for overall tracked memory usage:
  |   Minimum:        1.209 MB (on task 26)
  |   Maximum:        1.312 MB (on task 18)
  |   Average:        1.241 MB
  | Peak value for overall tracked memory usage:
  |   Minimum:        1.858 MB (on task 26 after allocating gradient_basis_wave)
  |   Maximum:        1.961 MB (on task 18 after allocating gradient_basis_wave)
  |   Average:        1.890 MB
  | Largest tracked array allocation so far:
  |   Minimum:        0.487 MB (gradient_basis_wave on task  0)
  |   Maximum:        0.487 MB (gradient_basis_wave on task  0)
  |   Average:        0.487 MB
[...]
          Begin self-consistency iteration #    6

  Date     :  20250311, Time     :  172447.263
------------------------------------------------------------
  Pulay mixing of updated and previous charge densities.
  Available memory per node after mixing [GB]:   1030.81
  Renormalizing the density to the exact electron count on the 3D integration grid.
  | Formal number of electrons (from input files) :      16.0000000000
  | Integrated number of electrons on 3D grid     :      16.0000000000
  | Charge integration error                      :       0.0000000000
  | Normalization factor for density and gradient :       1.0000000000

  Evaluating partitioned Hartree potential by multipole expansion.
  | Original multipole sum: apparent total charge =   0.535001E-14
  | Sum of charges compensated after spline to logarithmic grids =   0.210950E-06
  | Analytical far-field extrapolation by fixed multipoles:
  | Hartree multipole sum: apparent total charge =   0.566363E-14
  Summing up the Hartree potential.
  Time summed over all CPUs for potential: real work        0.009 s, elapsed        0.010 s
  | RMS charge density error from multipole expansion :   0.449661E-02

  Integrating Hamiltonian matrix: batch-based integration.
  Time summed over all CPUs for integration: real work        0.225 s, elapsed        0.254 s

  Updating Kohn-Sham eigenvalues and eigenvectors using ELSI and the ELPA eigensolver.
  Starting ELPA eigensolver
  Finished transformation to standard eigenproblem
  | Time :     0.000 s
  Finished solving standard eigenproblem
  | Time :     0.002 s
  Finished back-transformation of eigenvectors
  | Time :     0.000 s

  Obtaining occupation numbers and electronic chemical potential using ELSI.
  | Note that, for insulating systems, the printed 'chemical potential' value is not uniquely defined.
  | It can be anywhere in the energy gap, as long as it correctly separates occupied and unoccupied states.
  | In systems with a gap, the physically relevant chemical potential is the VBM or HOMO.

  | Chemical potential (Fermi level):    -5.92034977 eV
  Highest occupied state (VBM) at     -6.26034254 eV
  | Occupation number:      2.00000000

  Lowest unoccupied state (CBM) at    -2.68354484 eV
  | Occupation number:      0.00000000

  Overall HOMO-LUMO gap:      3.57679770 eV.

  Total energy components:
  | Sum of eigenvalues            :         -63.61162800 Ha       -1730.96046807 eV
  | XC energy correction          :         -14.56966075 Ha        -396.46064075 eV
  | XC potential correction       :          18.72388351 Ha         509.50279356 eV
  | Free-atom electrostatic energy:         -52.75122540 Ha       -1435.43387722 eV
  | Hartree energy correction     :          -2.33105963 Ha         -63.43136000 eV
  | Entropy correction            :           0.00000000 Ha           0.00000000 eV
  | ---------------------------
  | Total energy                  :        -114.53969027 Ha       -3116.78355248 eV
  | Total energy, T -> 0          :        -114.53969027 Ha       -3116.78355248 eV  <-- do not rely on this value for anything but (periodic) metals
  | Electronic free energy        :        -114.53969027 Ha       -3116.78355248 eV

  Derived energy quantities:
  | Kinetic energy                :         114.24830858 Ha        3108.85465321 eV
  | Electrostatic energy          :        -214.21833810 Ha       -5829.17756495 eV
  | Energy correction for multipole
  | error in Hartree potential    :          -0.00492949 Ha          -0.13413825 eV
  | Sum of eigenvalues per atom                           :        -432.74011702 eV
  | Total energy (T->0) per atom                          :        -779.19588812 eV  <-- do not rely on this value for anything but (periodic) metals
  | Electronic free energy per atom                       :        -779.19588812 eV
  Evaluating new KS density and force components.
  Integration grid: deviation in total charge (<rho> - N_e) =   1.065814E-14

  atomic forces [eV/Ang]:
  -----------------------
  atom #    1
   Hellmann-Feynman              :  0.127425E+02 -0.887687E-03 -0.134036E-03
   Ionic forces                  :  0.000000E+00  0.000000E+00  0.000000E+00
   Multipole                     : -0.345959E+00  0.285911E-04  0.469355E-05
   Hartree pot. SCF incomplete   : -0.206577E-04  0.224510E-04  0.607109E-05
   Pulay + GGA                   : -0.123989E+02  0.867365E-03  0.130411E-03
   ----------------------------------------------------------------
   Total forces(   1)            : -0.238413E-02  0.307202E-04  0.714008E-05
  atom #    2
   Hellmann-Feynman              :  0.142429E+01 -0.260609E-03 -0.553517E-04
   Ionic forces                  :  0.000000E+00  0.000000E+00  0.000000E+00
   Multipole                     : -0.491145E-02  0.111518E-05  0.439791E-06
   Hartree pot. SCF incomplete   :  0.198388E-04 -0.683361E-05 -0.187888E-05
   Pulay + GGA                   : -0.141838E+01  0.155277E-03  0.302307E-04
   ----------------------------------------------------------------
   Total forces(   2)            :  0.101566E-02 -0.111051E-03 -0.265601E-04
  atom #    3
   Hellmann-Feynman              :  0.495011E-01 -0.180683E-02  0.681588E-02
   Ionic forces                  :  0.000000E+00  0.000000E+00  0.000000E+00
   Multipole                     :  0.148834E-01 -0.110845E-01  0.411322E-01
   Hartree pot. SCF incomplete   :  0.703577E-05 -0.155734E-06  0.280490E-05
   Pulay + GGA                   : -0.650490E-01  0.126654E-01 -0.469837E-01
   ----------------------------------------------------------------
   Total forces(   3)            : -0.657480E-03 -0.226151E-03  0.967196E-03
  atom #    4
   Hellmann-Feynman              :  0.495012E-01  0.186724E-02 -0.680094E-02
   Ionic forces                  :  0.000000E+00  0.000000E+00  0.000000E+00
   Multipole                     :  0.148840E-01  0.110867E-01 -0.411314E-01
   Hartree pot. SCF incomplete   :  0.702202E-05  0.127044E-05 -0.248452E-05
   Pulay + GGA                   : -0.650498E-01 -0.126561E-01  0.469851E-01
   ----------------------------------------------------------------
   Total forces(   4)            : -0.657556E-03  0.299068E-03 -0.949701E-03


  Self-consistency convergence accuracy:
  | Change of charge density      :  0.1216E-05
  | Change of unmixed KS density  :  0.2418E-05
  | Change of sum of eigenvalues  : -0.2410E-04 eV
  | Change of total energy        : -0.8715E-08 eV
  | Change of forces              :  0.1500E+01 eV/A

  Writing Kohn-Sham eigenvalues.

  State    Occupation    Eigenvalue [Ha]    Eigenvalue [eV]
      1       2.00000         -18.804512         -511.69682
      2       2.00000          -9.993244         -271.93000
      3       2.00000          -0.980274          -26.67461
      4       2.00000          -0.577259          -15.70801
      5       2.00000          -0.445726          -12.12883
      6       2.00000          -0.404109          -10.99637
      7       2.00000          -0.370627          -10.08526
      8       2.00000          -0.230063           -6.26034
      9       0.00000          -0.098618           -2.68354
     10       0.00000          -0.001155           -0.03144
     11       0.00000           0.034972            0.95164
     12       0.00000           0.079799            2.17145
     13       0.00000           0.127418            3.46723
     14       0.00000           0.130661            3.55548
     15       0.00000           0.184931            5.03224
     16       0.00000           0.193276            5.25930
     17       0.00000           0.228518            6.21829

  Highest occupied state (VBM) at     -6.26034254 eV
  | Occupation number:      2.00000000

  Lowest unoccupied state (CBM) at    -2.68354484 eV
  | Occupation number:      0.00000000

  Overall HOMO-LUMO gap:      3.57679770 eV.

  | Chemical Potential                          :    -5.92034977 eV
  | Note that, for insulating systems, the printed 'chemical potential' value is not uniquely defined.
  | It can be anywhere in the energy gap, as long as it correctly separates occupied and unoccupied states.
  | In systems with a gap, the physically relevant chemical potential is the VBM or HOMO.

  Self-consistency cycle converged.


------------------------------------------------------------
  End self-consistency iteration #     6       :  max(cpu_time)    wall_clock(cpu1)
  | Time for this iteration                     :        0.055 s           0.055 s
  | Charge density & force component update     :        0.026 s           0.026 s
  | Density mixing                              :        0.000 s           0.000 s
  | Hartree multipole update                    :        0.001 s           0.001 s
  | Hartree multipole summation                 :        0.010 s           0.011 s
  | Hartree pot. SCF incomplete forces          :        0.007 s           0.007 s
  | Integration                                 :        0.008 s           0.008 s
  | Solution of K.-S. eqns.                     :        0.002 s           0.002 s
  | Total energy evaluation                     :        0.000 s           0.000 s

  Partial memory accounting:
  | Current value for overall tracked memory usage:
  |   Minimum:        1.214 MB (on task 28)
  |   Maximum:        1.316 MB (on task  2)
  |   Average:        1.244 MB
  | Peak value for overall tracked memory usage:
  |   Minimum:        3.024 MB (on task 22 after allocating hessian_basis_wave)
  |   Maximum:        3.114 MB (on task  8 after allocating hessian_basis_wave)
  |   Average:        3.069 MB
  | Largest tracked array allocation so far:
  |   Minimum:        0.979 MB (hessian_basis_wave on task  0)
  |   Maximum:        0.979 MB (hessian_basis_wave on task  0)
  |   Average:        0.979 MB
  Note:  These values currently only include a subset of arrays which are explicitly tracked.
  The "true" memory usage will be greater.
------------------------------------------------------------
  Removing unitary transformations (pure translations, rotations) from forces on atoms.
  Atomic forces before filtering:
  | Net force on center of mass :  -0.268350E-02 -0.741375E-05 -0.192514E-05 eV/A
  | Net torque on center of mass:  -0.787088E-05  0.167116E-05 -0.623610E-05 eV
  Atomic forces after filtering:
  | Net force on center of mass :  -0.871124E-19  0.000000E+00  0.000000E+00 eV/A
  | Net torque on center of mass:   0.000000E+00 -0.368783E-18 -0.828321E-19 eV

  Energy and forces in a compact form:
  | Total energy uncorrected      :         -0.311678355248228E+04 eV
  | Total energy corrected        :         -0.311678355248228E+04 eV  <-- do not rely on this value for anything but (periodic) metals
  | Electronic free energy        :         -0.311678355248228E+04 eV
  Total atomic forces (unitary forces cleaned) [eV/Ang]:
  |    1         -0.171325180945359E-02          0.360427329819238E-04          0.855325366622704E-05
  |    2          0.168653742301974E-02         -0.109213677274479E-03         -0.260831083661918E-04
  |    3          0.133933181190004E-04         -0.222012087292494E-03          0.968295211626553E-03
  |    4          0.133210683148484E-04          0.295183031585049E-03         -0.950765356926588E-03

  ------------------------------------ 
  Start decomposition of the XC Energy 
  ------------------------------------ 
  X and C from original XC functional choice 
  Hartree-Fock Energy :          0.000000000 Ha              0.000000000 eV
  X Energy            :        -14.055718018 Ha           -382.475547404 eV
  C Energy            :         -0.513942734 Ha            -13.985093342 eV
  XC Energy w/o HF    :        -14.569660752 Ha           -396.460640745 eV
  Total XC Energy     :        -14.569660752 Ha           -396.460640745 eV
  ------------------------------------ 
  LDA X and C from self-consistent density 
  X Energy LDA        :        -12.729895085 Ha           -346.398069798 eV
  C Energy LDA        :         -1.050315035 Ha            -28.580526275 eV
  ------------------------------------ 
  End decomposition of the XC Energy 
  ------------------------------------ 

------------------------------------------------------------
  Relaxation / MD: End force evaluation.       :  max(cpu_time)    wall_clock(cpu1)
  | Time for this force evaluation              :        0.197 s           0.199 s

------------------------------------------------------------
  Geometry optimization: Attempting to predict improved coordinates.

  Removing unitary transformations (pure translations, rotations) from forces on atoms.
  Atomic forces before filtering:
  | Net force on center of mass :  -0.871124E-19  0.000000E+00  0.000000E+00 eV/A
  | Net torque on center of mass:   0.000000E+00 -0.368783E-18 -0.828321E-19 eV
  Atomic forces after filtering:
  | Net force on center of mass :  -0.871124E-19  0.000000E+00  0.000000E+00 eV/A
  | Net torque on center of mass:  -0.460979E-19 -0.184392E-18 -0.165664E-19 eV
  Net remaining forces (excluding translations, rotations) in present geometry:
  || Forces on atoms   || =   0.171325E-02 eV/A.
  Maximum force component is  0.171325E-02 eV/A.
  Present geometry is converged.

------------------------------------------------------------
  Final atomic structure:
                         x [A]             y [A]             z [A]
            atom         0.60190007       -0.00002556       -0.00001049  O
            atom        -0.60558209        0.00005563        0.00000141  C
            atom        -1.19815154        0.24652322       -0.91440848  H
            atom        -1.19816643       -0.24635329        0.91441755  H
------------------------------------------------------------

------------------------------------------------------------------------------
  Final output of selected total energy values:

  The following output summarizes some interesting total energy values
  at the end of a run (AFTER all relaxation, molecular dynamics, etc.).

  | Total energy of the DFT / Hartree-Fock s.c.f. calculation      :          -3116.783552482 eV
  | Final zero-broadening corrected energy (caution - metals only) :          -3116.783552482 eV
  | For reference only, the value of 1 Hartree used in FHI-aims is :             27.211384500 eV

  Before relying on these values, please be sure to understand exactly which
  total energy value is referred to by a given number. Different objects may
  all carry the same name 'total energy'. Definitions:

  Total energy of the DFT / Hartree-Fock s.c.f. calculation:
  | Note that this energy does not include ANY quantities calculated after the
  | s.c.f. cycle, in particular not ANY RPA, MP2, etc. many-body perturbation terms.

  Final zero-broadening corrected energy:
  | For metallic systems only, a broadening of the occupation numbers at the Fermi
  | level can be extrapolated back to zero broadening by an electron-gas inspired
  | formula. For all systems that are not real metals, this value can be
  | meaningless and should be avoided.

------------------------------------------------------------------------------
  Methods described in the following list of references were used in this FHI-aims run.
  If you publish the results, please make sure to cite these reference if they apply.
  FHI-aims is an academic code, and for our developers (often, Ph.D. students
  and postdocs), scientific credit in the community is essential.
  Thank you for helping us!

  For any use of FHI-aims, please cite:

    Volker Blum, Ralf Gehrke, Felix Hanke, Paula Havu, Ville Havu,
    Xinguo Ren, Karsten Reuter, and Matthias Scheffler
    'Ab initio molecular simulations with numeric atom-centered orbitals'
    Computer Physics Communications 180, 2175-2196 (2009)
    http://doi.org/10.1016/j.cpc.2009.06.022


  The ELSI infrastructure was used in your run to solve the Kohn-Sham electronic structure.
  Please check out https://wordpress.elsi-interchange.org to learn more.
  If scalability is important for your project, please acknowledge ELSI by citing:

    V. W-z. Yu, F. Corsetti, A. Garcia, W. P. Huhn, M. Jacquelin, W. Jia,
    B. Lange, L. Lin, J. Lu, W. Mi, A. Seifitokaldani, A. Vazquez-Mayagoitia,
    C. Yang, H. Yang, and V. Blum
    'ELSI: A unified software interface for Kohn-Sham electronic structure solvers'
    Computer Physics Communications 222, 267-285 (2018).
    http://doi.org/10.1016/j.cpc.2017.09.007


  For the real-space grid partitioning and parallelization used in this calculation, please cite:

    Ville Havu, Volker Blum, Paula Havu, and Matthias Scheffler,
    'Efficient O(N) integration for all-electron electronic structure calculation'
    'using numerically tabulated basis functions'
    Journal of Computational Physics 228, 8367-8379 (2009).
    http://doi.org/10.1016/j.jcp.2009.08.008

  Of course, there are many other important community references, e.g., those cited in the
  above references. Our list is limited to references that describe implementations in the
  FHI-aims code. The reason is purely practical (length of this list) - please credit others as well.

------------------------------------------------------------
          Leaving FHI-aims.
          Date     :  20250311, Time     :  172447.331

          Computational steps:
          | Number of self-consistency cycles          :           64
          | Number of SCF (re)initializations          :            7
          | Number of relaxation steps                 :            6

          Detailed time accounting                     :  max(cpu_time)    wall_clock(cpu1)
          | Total time                                  :        2.162 s           2.162 s
          | Preparation time                            :        0.177 s           0.173 s
          | Boundary condition initalization            :        0.055 s           0.053 s
          | Grid partitioning                           :        0.105 s           0.103 s
          | Preloading free-atom quantities on grid     :        0.038 s           0.041 s
          | Free-atom superposition energy              :        0.009 s           0.008 s
          | Total time for integrations                 :        0.561 s           0.560 s
          | Total time for solution of K.-S. equations  :        0.179 s           0.181 s
          | Total time for EV reorthonormalization      :        0.003 s           0.004 s
          | Total time for density & force components   :        0.531 s           0.528 s
          | Total time for mixing                       :        0.021 s           0.019 s
          | Total time for Hartree multipole update     :        0.059 s           0.062 s
          | Total time for Hartree multipole sum        :        0.267 s           0.272 s
          | Total time for total energy evaluation      :        0.004 s           0.003 s
          | Total time NSC force correction             :        0.050 s           0.050 s
          | Total time for scaled ZORA corrections      :        0.000 s           0.000 s

          Partial memory accounting:
          | Residual value for overall tracked memory usage across tasks:     0.000000 MB (should be 0.000000 MB)
          | Peak values for overall tracked memory usage:
          |   Minimum:        3.024 MB (on task 22 after allocating hessian_basis_wave)
          |   Maximum:        3.114 MB (on task  8 after allocating hessian_basis_wave)
          |   Average:        3.069 MB
          | Largest tracked array allocation:
          |   Minimum:        0.979 MB (hessian_basis_wave on task  0)
          |   Maximum:        0.979 MB (hessian_basis_wave on task  0)
          |   Average:        0.979 MB
          Note:  These values currently only include a subset of arrays which are explicitly tracked.
          The "true" memory usage will be greater.

          Have a nice day.
------------------------------------------------------------
