------------------------------------------------------------
          Invoking FHI-aims ...

          When using FHI-aims, please cite the following reference:

            Volker Blum, Ralf Gehrke, Felix Hanke, Paula Havu,
            Ville Havu, Xinguo Ren, Karsten Reuter, and Matthias Scheffler,
            'Ab Initio Molecular Simulations with Numeric Atom-Centered Orbitals',
            Computer Physics Communications 180, 2175-2196 (2009)

          In addition, many other developments in FHI-aims are likely important for
          your particular application. If so, please cite them. A partial list of references
          is written at the end of this file. Thank you for giving credit to the authors
          of these developments.

          For general information about FHI-aims please find us at

            https://fhi-aims.org

          Online tutorials can be found at

            https://fhi-aims-club.gitlab.io/tutorials/tutorials-overview/

          For any questions about FHI-aims, please visit our slack channel at

            https://fhi-aims.slack.com

          and our main development and support site at

            https://aims-git.rz-berlin.mpg.de .

          The latter site, in particular, has a wiki to collect information, as well
          as an issue tracker to log discussions, suggest improvements, and report issues
          or bugs. https://aims-git.rz-berlin.mpg.de is also the main development site
          of the project and all new and updated code versions can be obtained there.
          Please send an email to aims-coordinators@fhi-berlin.mpg.de and we will add
          you to these sites. They are for you and everyone is welcome there.

------------------------------------------------------------



  Date     :  20241210, Time     :  125614.632
  Time zero on CPU 1             :   0.377372000000000E+00  s.
  Internal wall clock time zero  :           503067374.632  s.

  FHI-aims created a unique identifier for this run for later identification
  aims_uuid : 9A7571DB-EDC9-4807-A746-D0FA3A808E22

  Build configuration of the current instance of FHI-aims
  -------------------------------------------------------
  FHI-aims version      : 240605
  Commit number         : b001b2e18
  CMake host system     : Linux-6.5.0-41-generic
  CMake version         : 3.22.1
  Fortran compiler      : /opt/intel/oneapi/mpi/2021.12/bin/mpiifort (IntelLLVM) version 2024.1.0
  Fortran compiler flags: -fc=ifx -O3 -ip -fp-model precise
  C compiler            : /opt/intel/oneapi/mpi/2021.12/bin/mpiicc (IntelLLVM) version 2024.1.0
  C compiler flags      : -cc=icx -O3 -ip -fp-model precise -std=gnu99
  C++ compiler          : /opt/intel/oneapi/mpi/2021.12/bin/mpiicpc (IntelLLVM) version 2024.1.0
  C++ compiler flags    : -cxx=icpx -O3 -ip -fp-model precise -std=c++11
  HIP compiler          :
  HIP compiler flags    :
  HIP GPU arch          :
  Using MPI
  Using ScaLAPACK
  Using LibXC
  Using i-PI
  Using RLSY
  Linking against: /opt/intel/oneapi/mkl/2024.1/lib/intel64/libmkl_intel_lp64.so
                   /opt/intel/oneapi/mkl/2024.1/lib/intel64/libmkl_sequential.so
                   /opt/intel/oneapi/mkl/2024.1/lib/intel64/libmkl_core.so
                   /opt/intel/oneapi/mkl/2024.1/lib/intel64/libmkl_blacs_intelmpi_lp64.so
                   /opt/intel/oneapi/mkl/2024.1/lib/intel64/libmkl_scalapack_lp64.so
                   /opt/intel/oneapi/mkl/2024.1/lib/intel64/libmkl_core.so

  Using       32 parallel tasks.
  Task        0 on host RSL-arvutus reporting.
  Task        1 on host RSL-arvutus reporting.
  Task        2 on host RSL-arvutus reporting.
  Task        3 on host RSL-arvutus reporting.
  Task        4 on host RSL-arvutus reporting.
  Task        5 on host RSL-arvutus reporting.
  Task        6 on host RSL-arvutus reporting.
  Task        7 on host RSL-arvutus reporting.
  Task        8 on host RSL-arvutus reporting.
  Task        9 on host RSL-arvutus reporting.
  Task       10 on host RSL-arvutus reporting.
  Task       11 on host RSL-arvutus reporting.
  Task       12 on host RSL-arvutus reporting.
  Task       13 on host RSL-arvutus reporting.
  Task       14 on host RSL-arvutus reporting.
  Task       15 on host RSL-arvutus reporting.
  Task       16 on host RSL-arvutus reporting.
  Task       17 on host RSL-arvutus reporting.
  Task       18 on host RSL-arvutus reporting.
  Task       19 on host RSL-arvutus reporting.
  Task       20 on host RSL-arvutus reporting.
  Task       21 on host RSL-arvutus reporting.
  Task       22 on host RSL-arvutus reporting.
  Task       23 on host RSL-arvutus reporting.
  Task       24 on host RSL-arvutus reporting.
  Task       25 on host RSL-arvutus reporting.
  Task       26 on host RSL-arvutus reporting.
  Task       27 on host RSL-arvutus reporting.
  Task       28 on host RSL-arvutus reporting.
  Task       29 on host RSL-arvutus reporting.
  Task       30 on host RSL-arvutus reporting.
  Task       31 on host RSL-arvutus reporting.

  Memory overcommitment is allowed on your operating system.

  Obtaining array dimensions for all initial allocations:
  
  -----------------------------------------------------------------------
  Parsing control.in (first pass over file, find array dimensions only).
  The contents of control.in will be repeated verbatim below
  unless switched off by setting 'verbatim_writeout .false.' .
  in the first line of control.in .
  -----------------------------------------------------------------------
  
    xc              pbe
    relativistic    zora scalar 1.0e-12
    KS_method	  serial
    k_grid          4 4 1
    spin		  collinear
    default_initial_moment	0.0
    charge          0.1
    restart_write_only   restart
    output          Mulliken
  
  
  ################################################################################
  #
  #  FHI-aims code project
  #  VB, Fritz-Haber Institut, 2009
  #
  #  Suggested "light" defaults for Ti atom (to be pasted into control.in file)
  #  Be sure to double-check any results obtained with these settings for post-processing,
  #  e.g., with the "tight" defaults and larger basis sets.
  #
  ################################################################################
    species        Ti
  #     global species definitions
      nucleus             22
      mass                47.867
  #
      l_hartree           4
  #
      cut_pot             3.5          1.5  1.0
      basis_dep_cutoff    1e-4
  #
      radial_base         48 5.0
      radial_multiplier   1
      angular_grids       specified
        division   0.5171   50
        division   0.9824  110
        division   1.2917  194
        division   1.4940  302
  #      division   1.6934  434
  #      division   1.8425  590
  #      division   2.1901  770
  #      division   2.2896  974
  #      division   2.8244 1202
  #      outer_grid  974
        outer_grid  302
  ################################################################################
  #
  #  Definition of "minimal" basis
  #
  ################################################################################
  #     valence basis states
      valence      4  s   2.
      valence      3  p   6.
      valence      3  d   2.
  #     ion occupancy
      ion_occ      4  s   1.
      ion_occ      3  p   6.
      ion_occ      3  d   1.
  ################################################################################
  #
  #  Suggested additional basis functions. For production calculations,
  #  uncomment them one after another (the most important basis functions are
  #  listed first).
  #
  #  Constructed for dimers: 1.6 A, 1.85 A, 2.5 A, 3.25 A, 4.25 A
  #
  ################################################################################
  #  "First tier" - improvements: -396.25 meV to -19.41 meV
       hydro 4 f 8
       hydro 3 d 2.7
       ionic 4 p auto
  #     hydro 5 g 11.6
       ionic 4 s auto
  #  "Second tier" - improvements: -16.30 meV to -2.03 meV
  #     hydro 3 d 4.4
  #     hydro 6 h 16
  #     hydro 4 f 9.4
  #     hydro 4 p 4.5
  #     hydro 1 s 0.5
  #  "Third tier" - improvements: -6.28 meV to -0.37 meV
  #     hydro 4 d 6.4
  #     hydro 4 f 10
  #     hydro 5 g 12
  #     hydro 2 p 1.7
  #     hydro 6 h 16.4
  #     hydro 4 s 3.8
  #  Further basis functions: -0.45 meV and smaller improvements
  #     hydro 3 d 8.8
  #     hydro 5 p 18
  #     hydro 4 f 22.4
  #     hydro 5 f 7.2  # -0.16 meV
  #     hydro 3 d 2.1  # -0.11 meV
  #     hydro 5 g 7.4  # -0.09 meV
  
  
  ################################################################################
  #
  #  FHI-aims code project
  #  VB, Fritz-Haber Institut, 2009
  #
  #  Suggested "light" defaults for O atom (to be pasted into control.in file)
  #  Be sure to double-check any results obtained with these settings for post-processing,
  #  e.g., with the "tight" defaults and larger basis sets.
  #
  ################################################################################
    species        O
  #     global species definitions
      nucleus             8
      mass                15.9994
  #
      l_hartree           4
  #
      cut_pot             3.5  1.5  1.0
      basis_dep_cutoff    1e-4
  #
      radial_base         36 5.0
      radial_multiplier   1
       angular_grids specified
        division   0.2659   50
        division   0.4451  110
        division   0.6052  194
        division   0.7543  302
  #      division   0.8014  434
  #      division   0.8507  590
  #      division   0.8762  770
  #      division   0.9023  974
  #      division   1.2339 1202
  #      outer_grid 974
        outer_grid 302
  ################################################################################
  #
  #  Definition of "minimal" basis
  #
  ################################################################################
  #     valence basis states
      valence      2  s   2.
      valence      2  p   4.
  #     ion occupancy
      ion_occ      2  s   1.
      ion_occ      2  p   3.
  ################################################################################
  #
  #  Suggested additional basis functions. For production calculations,
  #  uncomment them one after another (the most important basis functions are
  #  listed first).
  #
  #  Constructed for dimers: 1.0 A, 1.208 A, 1.5 A, 2.0 A, 3.0 A
  #
  ################################################################################
  #  "First tier" - improvements: -699.05 meV to -159.38 meV
       hydro 2 p 1.8
       hydro 3 d 7.6
       hydro 3 s 6.4
  #  "Second tier" - improvements: -49.91 meV to -5.39 meV
  #     hydro 4 f 11.6
  #     hydro 3 p 6.2
  #     hydro 3 d 5.6
  #     hydro 5 g 17.6
  #     hydro 1 s 0.75
  #  "Third tier" - improvements: -2.83 meV to -0.50 meV
  #     ionic 2 p auto
  #     hydro 4 f 10.8
  #     hydro 4 d 4.7
  #     hydro 2 s 6.8
  #  "Fourth tier" - improvements: -0.40 meV to -0.12 meV
  #     hydro 3 p 5
  #     hydro 3 s 3.3
  #     hydro 5 g 15.6
  #     hydro 4 f 17.6
  #     hydro 4 d 14
  # Further basis functions - -0.08 meV and below
  #     hydro 3 s 2.1
  #     hydro 4 d 11.6
  #     hydro 3 p 16
  #     hydro 2 s 17.2
  
  ################################################################################
  #
  #  "Core" basis functions and numerical settings for O atom.
  #  Based on “tight” defaults (V. Blum, 2009).
  #
  ################################################################################
    species        O1
  #     global species definitions
      nucleus             8.1
      mass                15.9994
  #
      l_hartree           6
  #
      cut_pot             4.0  2.0  1.0
      basis_dep_cutoff    1e-4
  #
      radial_base         36 7.0
      radial_multiplier   2
       angular_grids specified
        division   0.1817   50
        division   0.3417  110
        division   0.4949  194
        division   0.6251  302
        division   0.8014  434
  #      division   0.8507  590
  #      division   0.8762  770
  #      division   0.9023  974
  #      division   1.2339 1202
  #      outer_grid 974
        outer_grid  434
  ################################################################################
  #
  #  Definition of "minimal" basis
  #
  ################################################################################
  #     valence basis states
      valence      2  s   2.
      valence      2  p   4.1
  #     ion occupancy
      ion_occ      2  s   1.
      ion_occ      2  p   3.
  ################################################################################
  #
  #  Suggested additional basis functions. For production calculations,
  #  uncomment them one after another (the most important basis functions are
  #  listed first).
  #
  #  Constructed for dimers: 1.0 A, 1.208 A, 1.5 A, 2.0 A, 3.0 A
  #
  ################################################################################
  #  "First tier" - improvements: -699.05 meV to -159.38 meV
       hydro 2 p 1.8
       hydro 3 d 7.6
       hydro 3 s 6.4
  #  "Second tier" - improvements: -49.91 meV to -5.39 meV
       hydro 4 f 11.6
       hydro 3 p 6.2
       hydro 3 d 5.6
       hydro 5 g 17.6
       hydro 1 s 0.75
  #  "Third tier" - improvements: -2.83 meV to -0.50 meV
       ionic 2 p auto
       hydro 4 f 10.8
       hydro 4 d 4.7
       hydro 2 s 6.8
  #  "Fourth tier" - improvements: -0.40 meV to -0.12 meV
  #     hydro 3 p 5
  #     hydro 3 s 3.3
  #     hydro 5 g 15.6
  #     hydro 4 f 17.6
  #     hydro 4 d 14
  # Further basis functions - -0.08 meV and below
  #     hydro 3 s 2.1
  #     hydro 4 d 11.6
  #     hydro 3 p 16
  #     hydro 2 s 17.2
  
  # Additional basis functions for atom with a core hole
       hydro 1 s 12.0
       hydro 1 s 10.0
       hydro 1 s 6.0
       hydro 2 s 10.0
       hydro 2 p 8.0
       hydro 2 p 6.0
       hydro 3 d 8.0
  ################################################################################
  #
  #  FHI-aims code project
  #  VB, Fritz-Haber Institut, 2009
  #
  #  Suggested "light" defaults for H atom (to be pasted into control.in file)
  #  Be sure to double-check any results obtained with these settings for post-processing,
  #  e.g., with the "tight" defaults and larger basis sets.
  #
  ################################################################################
    species        H
  #     global species definitions
      nucleus             1
      mass                1.00794
  #
      l_hartree           4
  #
      cut_pot             3.5  1.5  1.0
      basis_dep_cutoff    1e-4
  #
      radial_base         24 5.0
      radial_multiplier   1
      angular_grids       specified
        division   0.2421   50
        division   0.3822  110
        division   0.4799  194
        division   0.5341  302
  #      division   0.5626  434
  #      division   0.5922  590
  #      division   0.6542  770
  #      division   0.6868 1202
  #      outer_grid  770
        outer_grid  302
  ################################################################################
  #
  #  Definition of "minimal" basis
  #
  ################################################################################
  #     valence basis states
      valence      1  s   1.
  #     ion occupancy
      ion_occ      1  s   0.5
  ################################################################################
  #
  #  Suggested additional basis functions. For production calculations,
  #  uncomment them one after another (the most important basis functions are
  #  listed first).
  #
  #  Basis constructed for dimers: 0.5 A, 0.7 A, 1.0 A, 1.5 A, 2.5 A
  #
  ################################################################################
  #  "First tier" - improvements: -1014.90 meV to -62.69 meV
       hydro 2 s 2.1
       hydro 2 p 3.5
  #  "Second tier" - improvements: -12.89 meV to -1.83 meV
  #     hydro 1 s 0.85
  #     hydro 2 p 3.7
  #     hydro 2 s 1.2
  #     hydro 3 d 7
  #  "Third tier" - improvements: -0.25 meV to -0.12 meV
  #     hydro 4 f 11.2
  #     hydro 3 p 4.8
  #     hydro 4 d 9
  #     hydro 3 s 3.2
  
  -----------------------------------------------------------------------
  Completed first pass over input file control.in .
  -----------------------------------------------------------------------
  
  
  -----------------------------------------------------------------------
  Parsing geometry.in (first pass over file, find array dimensions only).
  The contents of geometry.in will be repeated verbatim below
  unless switched off by setting 'verbatim_writeout .false.' .
  in the first line of geometry.in .
  -----------------------------------------------------------------------
  
  lattice_vector 13.132253 0.000000 0.000000
  lattice_vector 0.000000 11.891531 0.000000
  lattice_vector 0.000000 0.000000 44.409708
  
  atom 6.566086 0.000000 17.006468 O
  atom 2.006317 1.486441 18.283206 O
  atom 3.283046 0.000000 18.283235 Ti
  atom 6.566109 1.486441 18.283235 Ti
  atom 4.559775 1.486441 18.283265 O
  atom 0.000005 0.000000 19.560002 O
  atom 3.283006 0.000000 20.289704 O
  atom 5.289362 1.486441 21.566441 O
  atom 6.566091 0.000000 21.566471 Ti
  atom 3.283028 1.486441 21.566471 Ti
  atom 1.276694 1.486441 21.566500 O
  atom 3.283051 0.000000 22.843237 O
  atom 6.566051 0.000000 23.572939 O
  atom 2.006281 1.486441 24.849676 O
  atom 3.283010 0.000000 24.849706 Ti
  atom 6.566074 1.486441 24.849706 Ti
  atom 4.559740 1.486441 24.849735 O
  atom 6.566096 0.000000 26.126473 O
  atom 3.282970 0.000000 26.856174 O
  atom 5.289327 1.486441 28.132912 O
  atom 6.566056 0.000000 28.132941 Ti
  atom 3.282993 1.486441 28.132941 Ti
  atom 1.276659 1.486441 28.132970 O
  atom 3.283015 0.000000 29.409708 O
  atom 3.283015 0.000000 30.409708 H
  atom 6.566086 0.000000 16.006468 H
  atom 6.566056 0.000000 30.132941 O
  atom 6.566056 0.000000 31.132941 H
  atom 3.283046 0.000000 16.283235 O
  atom 3.283046 0.000000 15.283235 H
  atom 6.566086 2.972883 17.006468 O
  atom 2.006317 4.459324 18.283206 O
  atom 3.283046 2.972883 18.283235 Ti
  atom 6.566109 4.459324 18.283235 Ti
  atom 4.559775 4.459324 18.283265 O
  atom 0.000005 2.972883 19.560002 O
  atom 3.283006 2.972883 20.289704 O
  atom 5.289362 4.459324 21.566441 O
  atom 6.566091 2.972883 21.566471 Ti
  atom 3.283028 4.459324 21.566471 Ti
  atom 1.276694 4.459324 21.566500 O
  atom 3.283051 2.972883 22.843237 O
  atom 6.566051 2.972883 23.572939 O1
  atom 2.006281 4.459324 24.849676 O
  atom 3.283010 2.972883 24.849706 Ti
  atom 6.566074 4.459324 24.849706 Ti
  atom 4.559740 4.459324 24.849735 O
  atom 6.566096 2.972883 26.126473 O
  atom 3.282970 2.972883 26.856174 O
  atom 5.289327 4.459324 28.132912 O
  atom 6.566056 2.972883 28.132941 Ti
  atom 3.282993 4.459324 28.132941 Ti
  atom 1.276659 4.459324 28.132970 O
  atom 3.283015 2.972883 29.409708 O
  atom 3.283015 2.972883 30.409708 H
  atom 6.566086 2.972883 16.006468 H
  atom 6.566056 2.972883 30.132941 O
  atom 6.566056 2.972883 31.132941 H
  atom 3.283046 2.972883 16.283235 O
  atom 3.283046 2.972883 15.283235 H
  atom 6.566086 5.945765 17.006468 O
  atom 2.006317 7.432207 18.283206 O
  atom 3.283046 5.945765 18.283235 Ti
  atom 6.566109 7.432207 18.283235 Ti
  atom 4.559775 7.432207 18.283265 O
  atom 0.000005 5.945765 19.560002 O
  atom 3.283006 5.945765 20.289704 O
  atom 5.289362 7.432207 21.566441 O
  atom 6.566091 5.945765 21.566471 Ti
  atom 3.283028 7.432207 21.566471 Ti
  atom 1.276694 7.432207 21.566500 O
  atom 3.283051 5.945765 22.843237 O
  atom 6.566051 5.945765 23.572939 O
  atom 2.006281 7.432207 24.849676 O
  atom 3.283010 5.945765 24.849706 Ti
  atom 6.566074 7.432207 24.849706 Ti
  atom 4.559740 7.432207 24.849735 O
  atom 6.566096 5.945765 26.126473 O
  atom 3.282970 5.945765 26.856174 O
  atom 5.289327 7.432207 28.132912 O
  atom 6.566056 5.945765 28.132941 Ti
  atom 3.282993 7.432207 28.132941 Ti
  atom 1.276659 7.432207 28.132970 O
  atom 3.283015 5.945765 29.409708 O
  atom 3.283015 5.945765 30.409708 H
  atom 6.566086 5.945765 16.006468 H
  atom 6.566056 5.945765 30.132941 O
  atom 6.566056 5.945765 31.132941 H
  atom 3.283046 5.945765 16.283235 O
  atom 3.283046 5.945765 15.283235 H
  atom 6.566086 8.918648 17.006468 O
  atom 2.006317 10.405089 18.283206 O
  atom 3.283046 8.918648 18.283235 Ti
  atom 6.566109 10.405089 18.283235 Ti
  atom 4.559775 10.405089 18.283265 O
  atom 0.000005 8.918648 19.560002 O
  atom 3.283006 8.918648 20.289704 O
  atom 5.289362 10.405089 21.566441 O
  atom 6.566091 8.918648 21.566471 Ti
  atom 3.283028 10.405089 21.566471 Ti
  atom 1.276694 10.405089 21.566500 O
  atom 3.283051 8.918648 22.843237 O
  atom 6.566051 8.918648 23.572939 O
  atom 2.006281 10.405089 24.849676 O
  atom 3.283010 8.918648 24.849706 Ti
  atom 6.566074 10.405089 24.849706 Ti
  atom 4.559740 10.405089 24.849735 O
  atom 6.566096 8.918648 26.126473 O
  atom 3.282970 8.918648 26.856174 O
  atom 5.289327 10.405089 28.132912 O
  atom 6.566056 8.918648 28.132941 Ti
  atom 3.282993 10.405089 28.132941 Ti
  atom 1.276659 10.405089 28.132970 O
  atom 3.283015 8.918648 29.409708 O
  atom 3.283015 8.918648 30.409708 H
  atom 6.566086 8.918648 16.006468 H
  atom 6.566056 8.918648 30.132941 O
  atom 6.566056 8.918648 31.132941 H
  atom 3.283046 8.918648 16.283235 O
  atom 3.283046 8.918648 15.283235 H
  atom 13.132213 0.000000 17.006468 O
  atom 8.572443 1.486441 18.283206 O
  atom 9.849172 0.000000 18.283235 Ti
  atom 13.132235 1.486441 18.283235 Ti
  atom 11.125901 1.486441 18.283265 O
  atom 6.566131 0.000000 19.560002 O
  atom 9.849132 0.000000 20.289704 O
  atom 11.855489 1.486441 21.566441 O
  atom 13.132218 0.000000 21.566471 Ti
  atom 9.849155 1.486441 21.566471 Ti
  atom 7.842820 1.486441 21.566500 O
  atom 9.849177 0.000000 22.843237 O
  atom 13.132178 0.000000 23.572939 O
  atom 8.572408 1.486441 24.849676 O
  atom 9.849137 0.000000 24.849706 Ti
  atom 13.132200 1.486441 24.849706 Ti
  atom 11.125866 1.486441 24.849735 O
  atom 13.132223 0.000000 26.126473 O
  atom 9.849097 0.000000 26.856174 O
  atom 11.855454 1.486441 28.132912 O
  atom 13.132183 0.000000 28.132941 Ti
  atom 9.849119 1.486441 28.132941 Ti
  atom 7.842785 1.486441 28.132970 O
  atom 9.849142 0.000000 29.409708 O
  atom 9.849142 0.000000 30.409708 H
  atom 13.132213 0.000000 16.006468 H
  atom 13.132183 0.000000 30.132941 O
  atom 13.132183 0.000000 31.132941 H
  atom 9.849173 0.000000 16.283235 O
  atom 9.849173 0.000000 15.283235 H
  atom 13.132213 2.972883 17.006468 O
  atom 8.572443 4.459324 18.283206 O
  atom 9.849172 2.972883 18.283235 Ti
  atom 13.132235 4.459324 18.283235 Ti
  atom 11.125901 4.459324 18.283265 O
  atom 6.566131 2.972883 19.560002 O
  atom 9.849132 2.972883 20.289704 O
  atom 11.855489 4.459324 21.566441 O
  atom 13.132218 2.972883 21.566471 Ti
  atom 9.849155 4.459324 21.566471 Ti
  atom 7.842820 4.459324 21.566500 O
  atom 9.849177 2.972883 22.843237 O
  atom 13.132178 2.972883 23.572939 O
  atom 8.572408 4.459324 24.849676 O
  atom 9.849137 2.972883 24.849706 Ti
  atom 13.132200 4.459324 24.849706 Ti
  atom 11.125866 4.459324 24.849735 O
  atom 13.132223 2.972883 26.126473 O
  atom 9.849097 2.972883 26.856174 O
  atom 11.855454 4.459324 28.132912 O
  atom 13.132183 2.972883 28.132941 Ti
  atom 9.849119 4.459324 28.132941 Ti
  atom 7.842785 4.459324 28.132970 O
  atom 9.849142 2.972883 29.409708 O
  atom 9.849142 2.972883 30.409708 H
  atom 13.132213 2.972883 16.006468 H
  atom 13.132183 2.972883 30.132941 O
  atom 13.132183 2.972883 31.132941 H
  atom 9.849173 2.972883 16.283235 O
  atom 9.849173 2.972883 15.283235 H
  atom 13.132213 5.945765 17.006468 O
  atom 8.572443 7.432207 18.283206 O
  atom 9.849172 5.945765 18.283235 Ti
  atom 13.132235 7.432207 18.283235 Ti
  atom 11.125901 7.432207 18.283265 O
  atom 6.566131 5.945765 19.560002 O
  atom 9.849132 5.945765 20.289704 O
  atom 11.855489 7.432207 21.566441 O
  atom 13.132218 5.945765 21.566471 Ti
  atom 9.849155 7.432207 21.566471 Ti
  atom 7.842820 7.432207 21.566500 O
  atom 9.849177 5.945765 22.843237 O
  atom 13.132178 5.945765 23.572939 O
  atom 8.572408 7.432207 24.849676 O
  atom 9.849137 5.945765 24.849706 Ti
  atom 13.132200 7.432207 24.849706 Ti
  atom 11.125866 7.432207 24.849735 O
  atom 13.132223 5.945765 26.126473 O
  atom 9.849097 5.945765 26.856174 O
  atom 11.855454 7.432207 28.132912 O
  atom 13.132183 5.945765 28.132941 Ti
  atom 9.849119 7.432207 28.132941 Ti
  atom 7.842785 7.432207 28.132970 O
  atom 9.849142 5.945765 29.409708 O
  atom 9.849142 5.945765 30.409708 H
  atom 13.132213 5.945765 16.006468 H
  atom 13.132183 5.945765 30.132941 O
  atom 13.132183 5.945765 31.132941 H
  atom 9.849173 5.945765 16.283235 O
  atom 9.849173 5.945765 15.283235 H
  atom 13.132213 8.918648 17.006468 O
  atom 8.572443 10.405089 18.283206 O
  atom 9.849172 8.918648 18.283235 Ti
  atom 13.132235 10.405089 18.283235 Ti
  atom 11.125901 10.405089 18.283265 O
  atom 6.566131 8.918648 19.560002 O
  atom 9.849132 8.918648 20.289704 O
  atom 11.855489 10.405089 21.566441 O
  atom 13.132218 8.918648 21.566471 Ti
  atom 9.849155 10.405089 21.566471 Ti
  atom 7.842820 10.405089 21.566500 O
  atom 9.849177 8.918648 22.843237 O
  atom 13.132178 8.918648 23.572939 O
  atom 8.572408 10.405089 24.849676 O
  atom 9.849137 8.918648 24.849706 Ti
  atom 13.132200 10.405089 24.849706 Ti
  atom 11.125866 10.405089 24.849735 O
  atom 13.132223 8.918648 26.126473 O
  atom 9.849097 8.918648 26.856174 O
  atom 11.855454 10.405089 28.132912 O
  atom 13.132183 8.918648 28.132941 Ti
  atom 9.849119 10.405089 28.132941 Ti
  atom 7.842785 10.405089 28.132970 O
  atom 9.849142 8.918648 29.409708 O
  atom 9.849142 8.918648 30.409708 H
  atom 13.132213 8.918648 16.006468 H
  atom 13.132183 8.918648 30.132941 O
  atom 13.132183 8.918648 31.132941 H
  atom 9.849173 8.918648 16.283235 O
  atom 9.849173 8.918648 15.283235 H
  
  -----------------------------------------------------------------------
  Completed first pass over input file geometry.in .
  -----------------------------------------------------------------------
  

  Basic array size parameters:
  | Number of species                 :        4
  | Number of atoms                   :      240
  | Number of lattice vectors         :        3
  | Max. basis fn. angular momentum   :        4
  | Max. atomic/ionic basis occupied n:        4
  | Max. number of basis fn. types    :        3
  | Max. radial fns per species/type  :       18
  | Max. logarithmic grid size        :     1383
  | Max. radial integration grid size :       73
  | Max. angular integration grid size:      434
  | Max. angular grid division number :        8
  | Radial grid for Hartree potential :     1383
  | Number of spin channels           :        2

------------------------------------------------------------
          Reading file control.in.
------------------------------------------------------------
  XC: Using PBE gradient-corrected functionals.
  Scalar relativistic treatment of kinetic energy: ZORA.
  Threshold value for ZORA:   0.100000E-11
  Kohn-Sham eigenvalues and eigenfunctions calculated by LAPACK via ELSI.
  Found k-point grid:         4         4         1
  Spin treatment: Spin density functional theory - collinear spins.
  Initial spin moment per atom:   0.0000
  Charged system requested: Charge =   0.100000E+00.
  Writing restart information to file restart000
  Mulliken charge analysis will be performed and summarised to the main output.
  Full Mulliken charge analysis will be written to file 'Mulliken.out'.
 
  Reading configuration options for species Ti                  .
  | Found nuclear charge :  22.0000
  | Found atomic mass :    47.8670000000000      amu
  | Found l_max for Hartree potential  :   4
  | Found cutoff potl. onset [A], width [A], scale factor :    3.50000    1.50000    1.00000
  | Threshold for basis-dependent cutoff potential is   0.100000E-03
  | Found data for basic radial integration grid :    48 points, outermost radius =    5.000 A
  | Found multiplier for basic radial grid :   1
  | Found angular grid specification: user-specified.
  | Specified grid contains     5 separate shells.
  | Check grid settings after all constraints further below.
  | Found free-atom valence shell :  4 s   2.000
  | Found free-atom valence shell :  3 p   6.000
  | Found free-atom valence shell :  3 d   2.000
  | Found free-ion valence shell :  4 s   1.000
  | Found free-ion valence shell :  3 p   6.000
  | Found free-ion valence shell :  3 d   1.000
  | Found hydrogenic basis function :  4 f   8.000
  | Found hydrogenic basis function :  3 d   2.700
  | Found ionic basis function :  4 p , default cutoff radius.
  | Found ionic basis function :  4 s , default cutoff radius.
 | Encountered keyword species, ending the description of species Ti                  .
  Species Ti                  : Missing cutoff potential type.
  Defaulting to exp(1/x)/(1-x)^2 type cutoff potential.
  Species Ti: No 'logarithmic' tag. Using default grid for free atom:
  | Default logarithmic grid data [bohr] : 0.1000E-03 0.1000E+03 0.1012E+01
  | Will include ionic basis functions of  2.0-fold positive Ti                   ion.
  Species Ti: On-site basis accuracy parameter (for Gram-Schmidt orthonormalisation) not specified.
  Using default value basis_acc =  0.1000000E-03.
  Species Ti                  : Using default innermost maximum threshold i_radial=  2 for radial functions.
  Species Ti                  : Default cutoff onset for free atom density etc. : 0.35000000E+01 AA.
  Species Ti                  : Basic radial grid will be enhanced according to radial_multiplier =   1, to contain    48 grid points.
 
  Reading configuration options for species O                   .
  | Found nuclear charge :   8.0000
  | Found atomic mass :    15.9994000000000      amu
  | Found l_max for Hartree potential  :   4
  | Found cutoff potl. onset [A], width [A], scale factor :    3.50000    1.50000    1.00000
  | Threshold for basis-dependent cutoff potential is   0.100000E-03
  | Found data for basic radial integration grid :    36 points, outermost radius =    5.000 A
  | Found multiplier for basic radial grid :   1
  | Found angular grid specification: user-specified.
  | Specified grid contains     5 separate shells.
  | Check grid settings after all constraints further below.
  | Found free-atom valence shell :  2 s   2.000
  | Found free-atom valence shell :  2 p   4.000
  | Found free-ion valence shell :  2 s   1.000
  | Found free-ion valence shell :  2 p   3.000
  | Found hydrogenic basis function :  2 p   1.800
  | Found hydrogenic basis function :  3 d   7.600
  | Found hydrogenic basis function :  3 s   6.400
 | Encountered keyword species, ending the description of species O                   .
  Species O                   : Missing cutoff potential type.
  Defaulting to exp(1/x)/(1-x)^2 type cutoff potential.
  Species O : No 'logarithmic' tag. Using default grid for free atom:
  | Default logarithmic grid data [bohr] : 0.1000E-03 0.1000E+03 0.1012E+01
  Species O : On-site basis accuracy parameter (for Gram-Schmidt orthonormalisation) not specified.
  Using default value basis_acc =  0.1000000E-03.
  Species O                   : Using default innermost maximum threshold i_radial=  2 for radial functions.
  Species O                   : Default cutoff onset for free atom density etc. : 0.35000000E+01 AA.
  Species O                   : Basic radial grid will be enhanced according to radial_multiplier =   1, to contain    36 grid points.
 
  Reading configuration options for species O1                  .
  | Found nuclear charge :   8.1000
  | Found atomic mass :    15.9994000000000      amu
  | Found l_max for Hartree potential  :   6
  | Found cutoff potl. onset [A], width [A], scale factor :    4.00000    2.00000    1.00000
  | Threshold for basis-dependent cutoff potential is   0.100000E-03
  | Found data for basic radial integration grid :    36 points, outermost radius =    7.000 A
  | Found multiplier for basic radial grid :   2
  | Found angular grid specification: user-specified.
  | Specified grid contains     6 separate shells.
  | Check grid settings after all constraints further below.
  | Found free-atom valence shell :  2 s   2.000
  | Found free-atom valence shell :  2 p   4.100
  | Found free-ion valence shell :  2 s   1.000
  | Found free-ion valence shell :  2 p   3.000
  | Found hydrogenic basis function :  2 p   1.800
  | Found hydrogenic basis function :  3 d   7.600
  | Found hydrogenic basis function :  3 s   6.400
  | Found hydrogenic basis function :  4 f  11.600
  | Found hydrogenic basis function :  3 p   6.200
  | Found hydrogenic basis function :  3 d   5.600
  | Found hydrogenic basis function :  5 g  17.600
  | Found hydrogenic basis function :  1 s   0.750
  | Found ionic basis function :  2 p , default cutoff radius.
  | Found hydrogenic basis function :  4 f  10.800
  | Found hydrogenic basis function :  4 d   4.700
  | Found hydrogenic basis function :  2 s   6.800
  | Found hydrogenic basis function :  1 s  12.000
  | Found hydrogenic basis function :  1 s  10.000
  | Found hydrogenic basis function :  1 s   6.000
  | Found hydrogenic basis function :  2 s  10.000
  | Found hydrogenic basis function :  2 p   8.000
  | Found hydrogenic basis function :  2 p   6.000
  | Found hydrogenic basis function :  3 d   8.000
 | Encountered keyword species, ending the description of species O1                  .
  Species O1                  : Missing cutoff potential type.
  Defaulting to exp(1/x)/(1-x)^2 type cutoff potential.
  Species O1: No 'logarithmic' tag. Using default grid for free atom:
  | Default logarithmic grid data [bohr] : 0.1000E-03 0.1000E+03 0.1012E+01
  | Will include ionic basis functions of  2.1-fold positive O1                   ion.
  Species O1: On-site basis accuracy parameter (for Gram-Schmidt orthonormalisation) not specified.
  Using default value basis_acc =  0.1000000E-03.
  Species O1                  : Using default innermost maximum threshold i_radial=  2 for radial functions.
  Species O1                  : Default cutoff onset for free atom density etc. : 0.40000000E+01 AA.
  Species O1                  : Basic radial grid will be enhanced according to radial_multiplier =   2, to contain    73 grid points.
 
  Reading configuration options for species H                   .
  | Found nuclear charge :   1.0000
  | Found atomic mass :    1.00794000000000      amu
  | Found l_max for Hartree potential  :   4
  | Found cutoff potl. onset [A], width [A], scale factor :    3.50000    1.50000    1.00000
  | Threshold for basis-dependent cutoff potential is   0.100000E-03
  | Found data for basic radial integration grid :    24 points, outermost radius =    5.000 A
  | Found multiplier for basic radial grid :   1
  | Found angular grid specification: user-specified.
  | Specified grid contains     5 separate shells.
  | Check grid settings after all constraints further below.
  | Found free-atom valence shell :  1 s   1.000
  | Found free-ion valence shell :  1 s   0.500
  | Found hydrogenic basis function :  2 s   2.100
  | Found hydrogenic basis function :  2 p   3.500
  Species H                   : Missing cutoff potential type.
  Defaulting to exp(1/x)/(1-x)^2 type cutoff potential.
  Species H : No 'logarithmic' tag. Using default grid for free atom:
  | Default logarithmic grid data [bohr] : 0.1000E-03 0.1000E+03 0.1012E+01
  Species H : On-site basis accuracy parameter (for Gram-Schmidt orthonormalisation) not specified.
  Using default value basis_acc =  0.1000000E-03.
  Species H                   : Using default innermost maximum threshold i_radial=  2 for radial functions.
  Species H                   : Default cutoff onset for free atom density etc. : 0.35000000E+01 AA.
  Species H                   : Basic radial grid will be enhanced according to radial_multiplier =   1, to contain    24 grid points.
 
  Finished reading input file 'control.in'.
 
------------------------------------------------------------


------------------------------------------------------------
          Reading geometry description geometry.in.
------------------------------------------------------------
  | The smallest distance between any two atoms is         1.00000000 AA.
  | The first atom of this pair is atom number                      1 .
  | The second atom of this pair is atom number                    26 .
  | Wigner-Seitz cell of the first atom image           0     0     0 .
  | (The Wigner-Seitz cell of the second atom is 0 0 0  by definition.)

  Symmetry information by spglib:
  | Precision set to  0.1E-04
  | Number of Operations  : 2
  | Space group           : 6
  | International         : Pm      /op
  | Schoenflies           : Cs^1
  Input structure read successfully.
  The structure contains      240 atoms,  and a total of       2592.000 electrons.

  Input geometry:
  | Unit cell:
  |       13.13225300        0.00000000        0.00000000
  |        0.00000000       11.89153100        0.00000000
  |        0.00000000        0.00000000       44.40970800
  | Atomic structure:
  |       Atom                x [A]            y [A]            z [A]
  |    1: Species O             6.56608600        0.00000000       17.00646800
  |    2: Species O             2.00631700        1.48644100       18.28320600
  |    3: Species Ti            3.28304600        0.00000000       18.28323500
  |    4: Species Ti            6.56610900        1.48644100       18.28323500
  |    5: Species O             4.55977500        1.48644100       18.28326500
  |    6: Species O             0.00000500        0.00000000       19.56000200
  |    7: Species O             3.28300600        0.00000000       20.28970400
  |    8: Species O             5.28936200        1.48644100       21.56644100
  |    9: Species Ti            6.56609100        0.00000000       21.56647100
  |   10: Species Ti            3.28302800        1.48644100       21.56647100
  |   11: Species O             1.27669400        1.48644100       21.56650000
  |   12: Species O             3.28305100        0.00000000       22.84323700
  |   13: Species O             6.56605100        0.00000000       23.57293900
  |   14: Species O             2.00628100        1.48644100       24.84967600
  |   15: Species Ti            3.28301000        0.00000000       24.84970600
  |   16: Species Ti            6.56607400        1.48644100       24.84970600
  |   17: Species O             4.55974000        1.48644100       24.84973500
  |   18: Species O             6.56609600        0.00000000       26.12647300
  |   19: Species O             3.28297000        0.00000000       26.85617400
  |   20: Species O             5.28932700        1.48644100       28.13291200
  |   21: Species Ti            6.56605600        0.00000000       28.13294100
  |   22: Species Ti            3.28299300        1.48644100       28.13294100
  |   23: Species O             1.27665900        1.48644100       28.13297000
  |   24: Species O             3.28301500        0.00000000       29.40970800
  |   25: Species H             3.28301500        0.00000000       30.40970800
  |   26: Species H             6.56608600        0.00000000       16.00646800
  |   27: Species O             6.56605600        0.00000000       30.13294100
  |   28: Species H             6.56605600        0.00000000       31.13294100
  |   29: Species O             3.28304600        0.00000000       16.28323500
  |   30: Species H             3.28304600        0.00000000       15.28323500
  |   31: Species O             6.56608600        2.97288300       17.00646800
  |   32: Species O             2.00631700        4.45932400       18.28320600
  |   33: Species Ti            3.28304600        2.97288300       18.28323500
  |   34: Species Ti            6.56610900        4.45932400       18.28323500
  |   35: Species O             4.55977500        4.45932400       18.28326500
  |   36: Species O             0.00000500        2.97288300       19.56000200
  |   37: Species O             3.28300600        2.97288300       20.28970400
  |   38: Species O             5.28936200        4.45932400       21.56644100
  |   39: Species Ti            6.56609100        2.97288300       21.56647100
  |   40: Species Ti            3.28302800        4.45932400       21.56647100
  |   41: Species O             1.27669400        4.45932400       21.56650000
  |   42: Species O             3.28305100        2.97288300       22.84323700
  |   43: Species O1            6.56605100        2.97288300       23.57293900
  |   44: Species O             2.00628100        4.45932400       24.84967600
  |   45: Species Ti            3.28301000        2.97288300       24.84970600
  |   46: Species Ti            6.56607400        4.45932400       24.84970600
  |   47: Species O             4.55974000        4.45932400       24.84973500
  |   48: Species O             6.56609600        2.97288300       26.12647300
  |   49: Species O             3.28297000        2.97288300       26.85617400
  |   50: Species O             5.28932700        4.45932400       28.13291200
  |   51: Species Ti            6.56605600        2.97288300       28.13294100
  |   52: Species Ti            3.28299300        4.45932400       28.13294100
  |   53: Species O             1.27665900        4.45932400       28.13297000
  |   54: Species O             3.28301500        2.97288300       29.40970800
  |   55: Species H             3.28301500        2.97288300       30.40970800
  |   56: Species H             6.56608600        2.97288300       16.00646800
  |   57: Species O             6.56605600        2.97288300       30.13294100
  |   58: Species H             6.56605600        2.97288300       31.13294100
  |   59: Species O             3.28304600        2.97288300       16.28323500
  |   60: Species H             3.28304600        2.97288300       15.28323500
  |   61: Species O             6.56608600        5.94576500       17.00646800
  |   62: Species O             2.00631700        7.43220700       18.28320600
  |   63: Species Ti            3.28304600        5.94576500       18.28323500
  |   64: Species Ti            6.56610900        7.43220700       18.28323500
  |   65: Species O             4.55977500        7.43220700       18.28326500
  |   66: Species O             0.00000500        5.94576500       19.56000200
  |   67: Species O             3.28300600        5.94576500       20.28970400
  |   68: Species O             5.28936200        7.43220700       21.56644100
  |   69: Species Ti            6.56609100        5.94576500       21.56647100
  |   70: Species Ti            3.28302800        7.43220700       21.56647100
  |   71: Species O             1.27669400        7.43220700       21.56650000
  |   72: Species O             3.28305100        5.94576500       22.84323700
  |   73: Species O             6.56605100        5.94576500       23.57293900
  |   74: Species O             2.00628100        7.43220700       24.84967600
  |   75: Species Ti            3.28301000        5.94576500       24.84970600
  |   76: Species Ti            6.56607400        7.43220700       24.84970600
  |   77: Species O             4.55974000        7.43220700       24.84973500
  |   78: Species O             6.56609600        5.94576500       26.12647300
  |   79: Species O             3.28297000        5.94576500       26.85617400
  |   80: Species O             5.28932700        7.43220700       28.13291200
  |   81: Species Ti            6.56605600        5.94576500       28.13294100
  |   82: Species Ti            3.28299300        7.43220700       28.13294100
  |   83: Species O             1.27665900        7.43220700       28.13297000
  |   84: Species O             3.28301500        5.94576500       29.40970800
  |   85: Species H             3.28301500        5.94576500       30.40970800
  |   86: Species H             6.56608600        5.94576500       16.00646800
  |   87: Species O             6.56605600        5.94576500       30.13294100
  |   88: Species H             6.56605600        5.94576500       31.13294100
  |   89: Species O             3.28304600        5.94576500       16.28323500
  |   90: Species H             3.28304600        5.94576500       15.28323500
  |   91: Species O             6.56608600        8.91864800       17.00646800
  |   92: Species O             2.00631700       10.40508900       18.28320600
  |   93: Species Ti            3.28304600        8.91864800       18.28323500
  |   94: Species Ti            6.56610900       10.40508900       18.28323500
  |   95: Species O             4.55977500       10.40508900       18.28326500
  |   96: Species O             0.00000500        8.91864800       19.56000200
  |   97: Species O             3.28300600        8.91864800       20.28970400
  |   98: Species O             5.28936200       10.40508900       21.56644100
  |   99: Species Ti            6.56609100        8.91864800       21.56647100
  |  100: Species Ti            3.28302800       10.40508900       21.56647100
  |  101: Species O             1.27669400       10.40508900       21.56650000
  |  102: Species O             3.28305100        8.91864800       22.84323700
  |  103: Species O             6.56605100        8.91864800       23.57293900
  |  104: Species O             2.00628100       10.40508900       24.84967600
  |  105: Species Ti            3.28301000        8.91864800       24.84970600
  |  106: Species Ti            6.56607400       10.40508900       24.84970600
  |  107: Species O             4.55974000       10.40508900       24.84973500
  |  108: Species O             6.56609600        8.91864800       26.12647300
  |  109: Species O             3.28297000        8.91864800       26.85617400
  |  110: Species O             5.28932700       10.40508900       28.13291200
  |  111: Species Ti            6.56605600        8.91864800       28.13294100
  |  112: Species Ti            3.28299300       10.40508900       28.13294100
  |  113: Species O             1.27665900       10.40508900       28.13297000
  |  114: Species O             3.28301500        8.91864800       29.40970800
  |  115: Species H             3.28301500        8.91864800       30.40970800
  |  116: Species H             6.56608600        8.91864800       16.00646800
  |  117: Species O             6.56605600        8.91864800       30.13294100
  |  118: Species H             6.56605600        8.91864800       31.13294100
  |  119: Species O             3.28304600        8.91864800       16.28323500
  |  120: Species H             3.28304600        8.91864800       15.28323500
  |  121: Species O            13.13221300        0.00000000       17.00646800
  |  122: Species O             8.57244300        1.48644100       18.28320600
  |  123: Species Ti            9.84917200        0.00000000       18.28323500
  |  124: Species Ti           13.13223500        1.48644100       18.28323500
  |  125: Species O            11.12590100        1.48644100       18.28326500
  |  126: Species O             6.56613100        0.00000000       19.56000200
  |  127: Species O             9.84913200        0.00000000       20.28970400
  |  128: Species O            11.85548900        1.48644100       21.56644100
  |  129: Species Ti           13.13221800        0.00000000       21.56647100
  |  130: Species Ti            9.84915500        1.48644100       21.56647100
  |  131: Species O             7.84282000        1.48644100       21.56650000
  |  132: Species O             9.84917700        0.00000000       22.84323700
  |  133: Species O            13.13217800        0.00000000       23.57293900
  |  134: Species O             8.57240800        1.48644100       24.84967600
  |  135: Species Ti            9.84913700        0.00000000       24.84970600
  |  136: Species Ti           13.13220000        1.48644100       24.84970600
  |  137: Species O            11.12586600        1.48644100       24.84973500
  |  138: Species O            13.13222300        0.00000000       26.12647300
  |  139: Species O             9.84909700        0.00000000       26.85617400
  |  140: Species O            11.85545400        1.48644100       28.13291200
  |  141: Species Ti           13.13218300        0.00000000       28.13294100
  |  142: Species Ti            9.84911900        1.48644100       28.13294100
  |  143: Species O             7.84278500        1.48644100       28.13297000
  |  144: Species O             9.84914200        0.00000000       29.40970800
  |  145: Species H             9.84914200        0.00000000       30.40970800
  |  146: Species H            13.13221300        0.00000000       16.00646800
  |  147: Species O            13.13218300        0.00000000       30.13294100
  |  148: Species H            13.13218300        0.00000000       31.13294100
  |  149: Species O             9.84917300        0.00000000       16.28323500
  |  150: Species H             9.84917300        0.00000000       15.28323500
  |  151: Species O            13.13221300        2.97288300       17.00646800
  |  152: Species O             8.57244300        4.45932400       18.28320600
  |  153: Species Ti            9.84917200        2.97288300       18.28323500
  |  154: Species Ti           13.13223500        4.45932400       18.28323500
  |  155: Species O            11.12590100        4.45932400       18.28326500
  |  156: Species O             6.56613100        2.97288300       19.56000200
  |  157: Species O             9.84913200        2.97288300       20.28970400
  |  158: Species O            11.85548900        4.45932400       21.56644100
  |  159: Species Ti           13.13221800        2.97288300       21.56647100
  |  160: Species Ti            9.84915500        4.45932400       21.56647100
  |  161: Species O             7.84282000        4.45932400       21.56650000
  |  162: Species O             9.84917700        2.97288300       22.84323700
  |  163: Species O            13.13217800        2.97288300       23.57293900
  |  164: Species O             8.57240800        4.45932400       24.84967600
  |  165: Species Ti            9.84913700        2.97288300       24.84970600
  |  166: Species Ti           13.13220000        4.45932400       24.84970600
  |  167: Species O            11.12586600        4.45932400       24.84973500
  |  168: Species O            13.13222300        2.97288300       26.12647300
  |  169: Species O             9.84909700        2.97288300       26.85617400
  |  170: Species O            11.85545400        4.45932400       28.13291200
  |  171: Species Ti           13.13218300        2.97288300       28.13294100
  |  172: Species Ti            9.84911900        4.45932400       28.13294100
  |  173: Species O             7.84278500        4.45932400       28.13297000
  |  174: Species O             9.84914200        2.97288300       29.40970800
  |  175: Species H             9.84914200        2.97288300       30.40970800
  |  176: Species H            13.13221300        2.97288300       16.00646800
  |  177: Species O            13.13218300        2.97288300       30.13294100
  |  178: Species H            13.13218300        2.97288300       31.13294100
  |  179: Species O             9.84917300        2.97288300       16.28323500
  |  180: Species H             9.84917300        2.97288300       15.28323500
  |  181: Species O            13.13221300        5.94576500       17.00646800
  |  182: Species O             8.57244300        7.43220700       18.28320600
  |  183: Species Ti            9.84917200        5.94576500       18.28323500
  |  184: Species Ti           13.13223500        7.43220700       18.28323500
  |  185: Species O            11.12590100        7.43220700       18.28326500
  |  186: Species O             6.56613100        5.94576500       19.56000200
  |  187: Species O             9.84913200        5.94576500       20.28970400
  |  188: Species O            11.85548900        7.43220700       21.56644100
  |  189: Species Ti           13.13221800        5.94576500       21.56647100
  |  190: Species Ti            9.84915500        7.43220700       21.56647100
  |  191: Species O             7.84282000        7.43220700       21.56650000
  |  192: Species O             9.84917700        5.94576500       22.84323700
  |  193: Species O            13.13217800        5.94576500       23.57293900
  |  194: Species O             8.57240800        7.43220700       24.84967600
  |  195: Species Ti            9.84913700        5.94576500       24.84970600
  |  196: Species Ti           13.13220000        7.43220700       24.84970600
  |  197: Species O            11.12586600        7.43220700       24.84973500
  |  198: Species O            13.13222300        5.94576500       26.12647300
  |  199: Species O             9.84909700        5.94576500       26.85617400
  |  200: Species O            11.85545400        7.43220700       28.13291200
  |  201: Species Ti           13.13218300        5.94576500       28.13294100
  |  202: Species Ti            9.84911900        7.43220700       28.13294100
  |  203: Species O             7.84278500        7.43220700       28.13297000
  |  204: Species O             9.84914200        5.94576500       29.40970800
  |  205: Species H             9.84914200        5.94576500       30.40970800
  |  206: Species H            13.13221300        5.94576500       16.00646800
  |  207: Species O            13.13218300        5.94576500       30.13294100
  |  208: Species H            13.13218300        5.94576500       31.13294100
  |  209: Species O             9.84917300        5.94576500       16.28323500
  |  210: Species H             9.84917300        5.94576500       15.28323500
  |  211: Species O            13.13221300        8.91864800       17.00646800
  |  212: Species O             8.57244300       10.40508900       18.28320600
  |  213: Species Ti            9.84917200        8.91864800       18.28323500
  |  214: Species Ti           13.13223500       10.40508900       18.28323500
  |  215: Species O            11.12590100       10.40508900       18.28326500
  |  216: Species O             6.56613100        8.91864800       19.56000200
  |  217: Species O             9.84913200        8.91864800       20.28970400
  |  218: Species O            11.85548900       10.40508900       21.56644100
  |  219: Species Ti           13.13221800        8.91864800       21.56647100
  |  220: Species Ti            9.84915500       10.40508900       21.56647100
  |  221: Species O             7.84282000       10.40508900       21.56650000
  |  222: Species O             9.84917700        8.91864800       22.84323700
  |  223: Species O            13.13217800        8.91864800       23.57293900
  |  224: Species O             8.57240800       10.40508900       24.84967600
  |  225: Species Ti            9.84913700        8.91864800       24.84970600
  |  226: Species Ti           13.13220000       10.40508900       24.84970600
  |  227: Species O            11.12586600       10.40508900       24.84973500
  |  228: Species O            13.13222300        8.91864800       26.12647300
  |  229: Species O             9.84909700        8.91864800       26.85617400
  |  230: Species O            11.85545400       10.40508900       28.13291200
  |  231: Species Ti           13.13218300        8.91864800       28.13294100
  |  232: Species Ti            9.84911900       10.40508900       28.13294100
  |  233: Species O             7.84278500       10.40508900       28.13297000
  |  234: Species O             9.84914200        8.91864800       29.40970800
  |  235: Species H             9.84914200        8.91864800       30.40970800
  |  236: Species H            13.13221300        8.91864800       16.00646800
  |  237: Species O            13.13218300        8.91864800       30.13294100
  |  238: Species H            13.13218300        8.91864800       31.13294100
  |  239: Species O             9.84917300        8.91864800       16.28323500
  |  240: Species H             9.84917300        8.91864800       15.28323500

  Lattice parameters for 3D lattice (in Angstroms) :    13.132253   11.891531   44.409708
  Angle(s) between unit vectors (in degrees)       :    90.000000   90.000000   90.000000


  Quantities derived from the lattice vectors (in Angstrom^-1):
  | Reciprocal lattice vector 1:  0.478454  0.000000  0.000000
  | Reciprocal lattice vector 2:  0.000000  0.528375  0.000000
  | Reciprocal lattice vector 3:  0.000000  0.000000  0.141482
  | Unit cell volume                               :   0.693514E+04  Angstrom^3

  Fractional coordinates:
                         L1                L2                L3
       atom_frac         0.49999692        0.00000000        0.38294483  O
       atom_frac         0.15277782        0.12499997        0.41169390  O
       atom_frac         0.24999869        0.00000000        0.41169456  Ti
       atom_frac         0.49999867        0.12499997        0.41169456  Ti
       atom_frac         0.34721955        0.12499997        0.41169523  O
       atom_frac         0.00000038        0.00000000        0.44044428  O
       atom_frac         0.24999564        0.00000000        0.45687542  O
       atom_frac         0.40277643        0.12499997        0.48562447  O
       atom_frac         0.49999730        0.00000000        0.48562515  Ti
       atom_frac         0.24999732        0.12499997        0.48562515  Ti
       atom_frac         0.09721820        0.12499997        0.48562580  O
       atom_frac         0.24999907        0.00000000        0.51437485  O
       atom_frac         0.49999425        0.00000000        0.53080599  O
       atom_frac         0.15277508        0.12499997        0.55955504  O
       atom_frac         0.24999595        0.00000000        0.55955572  Ti
       atom_frac         0.49999600        0.12499997        0.55955572  Ti
       atom_frac         0.34721689        0.12499997        0.55955637  O
       atom_frac         0.49999768        0.00000000        0.58830544  O
       atom_frac         0.24999290        0.00000000        0.60473656  O
       atom_frac         0.40277377        0.12499997        0.63348563  O
       atom_frac         0.49999463        0.00000000        0.63348629  Ti
       atom_frac         0.24999465        0.12499997        0.63348629  Ti
       atom_frac         0.09721553        0.12499997        0.63348694  O
       atom_frac         0.24999633        0.00000000        0.66223601  O
       atom_frac         0.24999633        0.00000000        0.68475361  H
       atom_frac         0.49999692        0.00000000        0.36042723  H
       atom_frac         0.49999463        0.00000000        0.67852148  O
       atom_frac         0.49999463        0.00000000        0.70103908  H
       atom_frac         0.24999869        0.00000000        0.36665936  O
       atom_frac         0.24999869        0.00000000        0.34414176  H
       atom_frac         0.49999692        0.25000002        0.38294483  O
       atom_frac         0.15277782        0.37499999        0.41169390  O
       atom_frac         0.24999869        0.25000002        0.41169456  Ti
       atom_frac         0.49999867        0.37499999        0.41169456  Ti
       atom_frac         0.34721955        0.37499999        0.41169523  O
       atom_frac         0.00000038        0.25000002        0.44044428  O
       atom_frac         0.24999564        0.25000002        0.45687542  O
       atom_frac         0.40277643        0.37499999        0.48562447  O
       atom_frac         0.49999730        0.25000002        0.48562515  Ti
       atom_frac         0.24999732        0.37499999        0.48562515  Ti
       atom_frac         0.09721820        0.37499999        0.48562580  O
       atom_frac         0.24999907        0.25000002        0.51437485  O
       atom_frac         0.49999425        0.25000002        0.53080599  O1
       atom_frac         0.15277508        0.37499999        0.55955504  O
       atom_frac         0.24999595        0.25000002        0.55955572  Ti
       atom_frac         0.49999600        0.37499999        0.55955572  Ti
       atom_frac         0.34721689        0.37499999        0.55955637  O
       atom_frac         0.49999768        0.25000002        0.58830544  O
       atom_frac         0.24999290        0.25000002        0.60473656  O
       atom_frac         0.40277377        0.37499999        0.63348563  O
       atom_frac         0.49999463        0.25000002        0.63348629  Ti
       atom_frac         0.24999465        0.37499999        0.63348629  Ti
       atom_frac         0.09721553        0.37499999        0.63348694  O
       atom_frac         0.24999633        0.25000002        0.66223601  O
       atom_frac         0.24999633        0.25000002        0.68475361  H
       atom_frac         0.49999692        0.25000002        0.36042723  H
       atom_frac         0.49999463        0.25000002        0.67852148  O
       atom_frac         0.49999463        0.25000002        0.70103908  H
       atom_frac         0.24999869        0.25000002        0.36665936  O
       atom_frac         0.24999869        0.25000002        0.34414176  H
       atom_frac         0.49999692        0.49999996        0.38294483  O
       atom_frac         0.15277782        0.62500001        0.41169390  O
       atom_frac         0.24999869        0.49999996        0.41169456  Ti
       atom_frac         0.49999867        0.62500001        0.41169456  Ti
       atom_frac         0.34721955        0.62500001        0.41169523  O
       atom_frac         0.00000038        0.49999996        0.44044428  O
       atom_frac         0.24999564        0.49999996        0.45687542  O
       atom_frac         0.40277643        0.62500001        0.48562447  O
       atom_frac         0.49999730        0.49999996        0.48562515  Ti
       atom_frac         0.24999732        0.62500001        0.48562515  Ti
       atom_frac         0.09721820        0.62500001        0.48562580  O
       atom_frac         0.24999907        0.49999996        0.51437485  O
       atom_frac         0.49999425        0.49999996        0.53080599  O
       atom_frac         0.15277508        0.62500001        0.55955504  O
       atom_frac         0.24999595        0.49999996        0.55955572  Ti
       atom_frac         0.49999600        0.62500001        0.55955572  Ti
       atom_frac         0.34721689        0.62500001        0.55955637  O
       atom_frac         0.49999768        0.49999996        0.58830544  O
       atom_frac         0.24999290        0.49999996        0.60473656  O
       atom_frac         0.40277377        0.62500001        0.63348563  O
       atom_frac         0.49999463        0.49999996        0.63348629  Ti
       atom_frac         0.24999465        0.62500001        0.63348629  Ti
       atom_frac         0.09721553        0.62500001        0.63348694  O
       atom_frac         0.24999633        0.49999996        0.66223601  O
       atom_frac         0.24999633        0.49999996        0.68475361  H
       atom_frac         0.49999692        0.49999996        0.36042723  H
       atom_frac         0.49999463        0.49999996        0.67852148  O
       atom_frac         0.49999463        0.49999996        0.70103908  H
       atom_frac         0.24999869        0.49999996        0.36665936  O
       atom_frac         0.24999869        0.49999996        0.34414176  H
       atom_frac         0.49999692        0.74999998        0.38294483  O
       atom_frac         0.15277782        0.87499995        0.41169390  O
       atom_frac         0.24999869        0.74999998        0.41169456  Ti
       atom_frac         0.49999867        0.87499995        0.41169456  Ti
       atom_frac         0.34721955        0.87499995        0.41169523  O
       atom_frac         0.00000038        0.74999998        0.44044428  O
       atom_frac         0.24999564        0.74999998        0.45687542  O
       atom_frac         0.40277643        0.87499995        0.48562447  O
       atom_frac         0.49999730        0.74999998        0.48562515  Ti
       atom_frac         0.24999732        0.87499995        0.48562515  Ti
       atom_frac         0.09721820        0.87499995        0.48562580  O
       atom_frac         0.24999907        0.74999998        0.51437485  O
       atom_frac         0.49999425        0.74999998        0.53080599  O
       atom_frac         0.15277508        0.87499995        0.55955504  O
       atom_frac         0.24999595        0.74999998        0.55955572  Ti
       atom_frac         0.49999600        0.87499995        0.55955572  Ti
       atom_frac         0.34721689        0.87499995        0.55955637  O
       atom_frac         0.49999768        0.74999998        0.58830544  O
       atom_frac         0.24999290        0.74999998        0.60473656  O
       atom_frac         0.40277377        0.87499995        0.63348563  O
       atom_frac         0.49999463        0.74999998        0.63348629  Ti
       atom_frac         0.24999465        0.87499995        0.63348629  Ti
       atom_frac         0.09721553        0.87499995        0.63348694  O
       atom_frac         0.24999633        0.74999998        0.66223601  O
       atom_frac         0.24999633        0.74999998        0.68475361  H
       atom_frac         0.49999692        0.74999998        0.36042723  H
       atom_frac         0.49999463        0.74999998        0.67852148  O
       atom_frac         0.49999463        0.74999998        0.70103908  H
       atom_frac         0.24999869        0.74999998        0.36665936  O
       atom_frac         0.24999869        0.74999998        0.34414176  H
       atom_frac         0.99999695        0.00000000        0.38294483  O
       atom_frac         0.65277778        0.12499997        0.41169390  O
       atom_frac         0.74999865        0.00000000        0.41169456  Ti
       atom_frac         0.99999863        0.12499997        0.41169456  Ti
       atom_frac         0.84721951        0.12499997        0.41169523  O
       atom_frac         0.50000034        0.00000000        0.44044428  O
       atom_frac         0.74999560        0.00000000        0.45687542  O
       atom_frac         0.90277647        0.12499997        0.48562447  O
       atom_frac         0.99999733        0.00000000        0.48562515  Ti
       atom_frac         0.74999735        0.12499997        0.48562515  Ti
       atom_frac         0.59721816        0.12499997        0.48562580  O
       atom_frac         0.74999903        0.00000000        0.51437485  O
       atom_frac         0.99999429        0.00000000        0.53080599  O
       atom_frac         0.65277512        0.12499997        0.55955504  O
       atom_frac         0.74999598        0.00000000        0.55955572  Ti
       atom_frac         0.99999596        0.12499997        0.55955572  Ti
       atom_frac         0.84721685        0.12499997        0.55955637  O
       atom_frac         0.99999772        0.00000000        0.58830544  O
       atom_frac         0.74999294        0.00000000        0.60473656  O
       atom_frac         0.90277380        0.12499997        0.63348563  O
       atom_frac         0.99999467        0.00000000        0.63348629  Ti
       atom_frac         0.74999461        0.12499997        0.63348629  Ti
       atom_frac         0.59721550        0.12499997        0.63348694  O
       atom_frac         0.74999636        0.00000000        0.66223601  O
       atom_frac         0.74999636        0.00000000        0.68475361  H
       atom_frac         0.99999695        0.00000000        0.36042723  H
       atom_frac         0.99999467        0.00000000        0.67852148  O
       atom_frac         0.99999467        0.00000000        0.70103908  H
       atom_frac         0.74999872        0.00000000        0.36665936  O
       atom_frac         0.74999872        0.00000000        0.34414176  H
       atom_frac         0.99999695        0.25000002        0.38294483  O
       atom_frac         0.65277778        0.37499999        0.41169390  O
       atom_frac         0.74999865        0.25000002        0.41169456  Ti
       atom_frac         0.99999863        0.37499999        0.41169456  Ti
       atom_frac         0.84721951        0.37499999        0.41169523  O
       atom_frac         0.50000034        0.25000002        0.44044428  O
       atom_frac         0.74999560        0.25000002        0.45687542  O
       atom_frac         0.90277647        0.37499999        0.48562447  O
       atom_frac         0.99999733        0.25000002        0.48562515  Ti
       atom_frac         0.74999735        0.37499999        0.48562515  Ti
       atom_frac         0.59721816        0.37499999        0.48562580  O
       atom_frac         0.74999903        0.25000002        0.51437485  O
       atom_frac         0.99999429        0.25000002        0.53080599  O
       atom_frac         0.65277512        0.37499999        0.55955504  O
       atom_frac         0.74999598        0.25000002        0.55955572  Ti
       atom_frac         0.99999596        0.37499999        0.55955572  Ti
       atom_frac         0.84721685        0.37499999        0.55955637  O
       atom_frac         0.99999772        0.25000002        0.58830544  O
       atom_frac         0.74999294        0.25000002        0.60473656  O
       atom_frac         0.90277380        0.37499999        0.63348563  O
       atom_frac         0.99999467        0.25000002        0.63348629  Ti
       atom_frac         0.74999461        0.37499999        0.63348629  Ti
       atom_frac         0.59721550        0.37499999        0.63348694  O
       atom_frac         0.74999636        0.25000002        0.66223601  O
       atom_frac         0.74999636        0.25000002        0.68475361  H
       atom_frac         0.99999695        0.25000002        0.36042723  H
       atom_frac         0.99999467        0.25000002        0.67852148  O
       atom_frac         0.99999467        0.25000002        0.70103908  H
       atom_frac         0.74999872        0.25000002        0.36665936  O
       atom_frac         0.74999872        0.25000002        0.34414176  H
       atom_frac         0.99999695        0.49999996        0.38294483  O
       atom_frac         0.65277778        0.62500001        0.41169390  O
       atom_frac         0.74999865        0.49999996        0.41169456  Ti
       atom_frac         0.99999863        0.62500001        0.41169456  Ti
       atom_frac         0.84721951        0.62500001        0.41169523  O
       atom_frac         0.50000034        0.49999996        0.44044428  O
       atom_frac         0.74999560        0.49999996        0.45687542  O
       atom_frac         0.90277647        0.62500001        0.48562447  O
       atom_frac         0.99999733        0.49999996        0.48562515  Ti
       atom_frac         0.74999735        0.62500001        0.48562515  Ti
       atom_frac         0.59721816        0.62500001        0.48562580  O
       atom_frac         0.74999903        0.49999996        0.51437485  O
       atom_frac         0.99999429        0.49999996        0.53080599  O
       atom_frac         0.65277512        0.62500001        0.55955504  O
       atom_frac         0.74999598        0.49999996        0.55955572  Ti
       atom_frac         0.99999596        0.62500001        0.55955572  Ti
       atom_frac         0.84721685        0.62500001        0.55955637  O
       atom_frac         0.99999772        0.49999996        0.58830544  O
       atom_frac         0.74999294        0.49999996        0.60473656  O
       atom_frac         0.90277380        0.62500001        0.63348563  O
       atom_frac         0.99999467        0.49999996        0.63348629  Ti
       atom_frac         0.74999461        0.62500001        0.63348629  Ti
       atom_frac         0.59721550        0.62500001        0.63348694  O
       atom_frac         0.74999636        0.49999996        0.66223601  O
       atom_frac         0.74999636        0.49999996        0.68475361  H
       atom_frac         0.99999695        0.49999996        0.36042723  H
       atom_frac         0.99999467        0.49999996        0.67852148  O
       atom_frac         0.99999467        0.49999996        0.70103908  H
       atom_frac         0.74999872        0.49999996        0.36665936  O
       atom_frac         0.74999872        0.49999996        0.34414176  H
       atom_frac         0.99999695        0.74999998        0.38294483  O
       atom_frac         0.65277778        0.87499995        0.41169390  O
       atom_frac         0.74999865        0.74999998        0.41169456  Ti
       atom_frac         0.99999863        0.87499995        0.41169456  Ti
       atom_frac         0.84721951        0.87499995        0.41169523  O
       atom_frac         0.50000034        0.74999998        0.44044428  O
       atom_frac         0.74999560        0.74999998        0.45687542  O
       atom_frac         0.90277647        0.87499995        0.48562447  O
       atom_frac         0.99999733        0.74999998        0.48562515  Ti
       atom_frac         0.74999735        0.87499995        0.48562515  Ti
       atom_frac         0.59721816        0.87499995        0.48562580  O
       atom_frac         0.74999903        0.74999998        0.51437485  O
       atom_frac         0.99999429        0.74999998        0.53080599  O
       atom_frac         0.65277512        0.87499995        0.55955504  O
       atom_frac         0.74999598        0.74999998        0.55955572  Ti
       atom_frac         0.99999596        0.87499995        0.55955572  Ti
       atom_frac         0.84721685        0.87499995        0.55955637  O
       atom_frac         0.99999772        0.74999998        0.58830544  O
       atom_frac         0.74999294        0.74999998        0.60473656  O
       atom_frac         0.90277380        0.87499995        0.63348563  O
       atom_frac         0.99999467        0.74999998        0.63348629  Ti
       atom_frac         0.74999461        0.87499995        0.63348629  Ti
       atom_frac         0.59721550        0.87499995        0.63348694  O
       atom_frac         0.74999636        0.74999998        0.66223601  O
       atom_frac         0.74999636        0.74999998        0.68475361  H
       atom_frac         0.99999695        0.74999998        0.36042723  H
       atom_frac         0.99999467        0.74999998        0.67852148  O
       atom_frac         0.99999467        0.74999998        0.70103908  H
       atom_frac         0.74999872        0.74999998        0.36665936  O
       atom_frac         0.74999872        0.74999998        0.34414176  H

  Initial moments and charges:
  |  Atom   Moment         Charge        Species
  |     1   0.000000E+00   0.000000E+00   O
  |     2   0.000000E+00   0.000000E+00   O
  |     3   0.000000E+00   0.000000E+00   Ti
  |     4   0.000000E+00   0.000000E+00   Ti
  |     5   0.000000E+00   0.000000E+00   O
  |     6   0.000000E+00   0.000000E+00   O
  |     7   0.000000E+00   0.000000E+00   O
  |     8   0.000000E+00   0.000000E+00   O
  |     9   0.000000E+00   0.000000E+00   Ti
  |    10   0.000000E+00   0.000000E+00   Ti
  |    11   0.000000E+00   0.000000E+00   O
  |    12   0.000000E+00   0.000000E+00   O
  |    13   0.000000E+00   0.000000E+00   O
  |    14   0.000000E+00   0.000000E+00   O
  |    15   0.000000E+00   0.000000E+00   Ti
  |    16   0.000000E+00   0.000000E+00   Ti
  |    17   0.000000E+00   0.000000E+00   O
  |    18   0.000000E+00   0.000000E+00   O
  |    19   0.000000E+00   0.000000E+00   O
  |    20   0.000000E+00   0.000000E+00   O
  |    21   0.000000E+00   0.000000E+00   Ti
  |    22   0.000000E+00   0.000000E+00   Ti
  |    23   0.000000E+00   0.000000E+00   O
  |    24   0.000000E+00   0.000000E+00   O
  |    25   0.000000E+00   0.000000E+00   H
  |    26   0.000000E+00   0.000000E+00   H
  |    27   0.000000E+00   0.000000E+00   O
  |    28   0.000000E+00   0.000000E+00   H
  |    29   0.000000E+00   0.000000E+00   O
  |    30   0.000000E+00   0.000000E+00   H
  |    31   0.000000E+00   0.000000E+00   O
  |    32   0.000000E+00   0.000000E+00   O
  |    33   0.000000E+00   0.000000E+00   Ti
  |    34   0.000000E+00   0.000000E+00   Ti
  |    35   0.000000E+00   0.000000E+00   O
  |    36   0.000000E+00   0.000000E+00   O
  |    37   0.000000E+00   0.000000E+00   O
  |    38   0.000000E+00   0.000000E+00   O
  |    39   0.000000E+00   0.000000E+00   Ti
  |    40   0.000000E+00   0.000000E+00   Ti
  |    41   0.000000E+00   0.000000E+00   O
  |    42   0.000000E+00   0.000000E+00   O
  |    43   0.000000E+00   0.000000E+00   O1
  |    44   0.000000E+00   0.000000E+00   O
  |    45   0.000000E+00   0.000000E+00   Ti
  |    46   0.000000E+00   0.000000E+00   Ti
  |    47   0.000000E+00   0.000000E+00   O
  |    48   0.000000E+00   0.000000E+00   O
  |    49   0.000000E+00   0.000000E+00   O
  |    50   0.000000E+00   0.000000E+00   O
  |    51   0.000000E+00   0.000000E+00   Ti
  |    52   0.000000E+00   0.000000E+00   Ti
  |    53   0.000000E+00   0.000000E+00   O
  |    54   0.000000E+00   0.000000E+00   O
  |    55   0.000000E+00   0.000000E+00   H
  |    56   0.000000E+00   0.000000E+00   H
  |    57   0.000000E+00   0.000000E+00   O
  |    58   0.000000E+00   0.000000E+00   H
  |    59   0.000000E+00   0.000000E+00   O
  |    60   0.000000E+00   0.000000E+00   H
  |    61   0.000000E+00   0.000000E+00   O
  |    62   0.000000E+00   0.000000E+00   O
  |    63   0.000000E+00   0.000000E+00   Ti
  |    64   0.000000E+00   0.000000E+00   Ti
  |    65   0.000000E+00   0.000000E+00   O
  |    66   0.000000E+00   0.000000E+00   O
  |    67   0.000000E+00   0.000000E+00   O
  |    68   0.000000E+00   0.000000E+00   O
  |    69   0.000000E+00   0.000000E+00   Ti
  |    70   0.000000E+00   0.000000E+00   Ti
  |    71   0.000000E+00   0.000000E+00   O
  |    72   0.000000E+00   0.000000E+00   O
  |    73   0.000000E+00   0.000000E+00   O
  |    74   0.000000E+00   0.000000E+00   O
  |    75   0.000000E+00   0.000000E+00   Ti
  |    76   0.000000E+00   0.000000E+00   Ti
  |    77   0.000000E+00   0.000000E+00   O
  |    78   0.000000E+00   0.000000E+00   O
  |    79   0.000000E+00   0.000000E+00   O
  |    80   0.000000E+00   0.000000E+00   O
  |    81   0.000000E+00   0.000000E+00   Ti
  |    82   0.000000E+00   0.000000E+00   Ti
  |    83   0.000000E+00   0.000000E+00   O
  |    84   0.000000E+00   0.000000E+00   O
  |    85   0.000000E+00   0.000000E+00   H
  |    86   0.000000E+00   0.000000E+00   H
  |    87   0.000000E+00   0.000000E+00   O
  |    88   0.000000E+00   0.000000E+00   H
  |    89   0.000000E+00   0.000000E+00   O
  |    90   0.000000E+00   0.000000E+00   H
  |    91   0.000000E+00   0.000000E+00   O
  |    92   0.000000E+00   0.000000E+00   O
  |    93   0.000000E+00   0.000000E+00   Ti
  |    94   0.000000E+00   0.000000E+00   Ti
  |    95   0.000000E+00   0.000000E+00   O
  |    96   0.000000E+00   0.000000E+00   O
  |    97   0.000000E+00   0.000000E+00   O
  |    98   0.000000E+00   0.000000E+00   O
  |    99   0.000000E+00   0.000000E+00   Ti
  |   100   0.000000E+00   0.000000E+00   Ti
  |   101   0.000000E+00   0.000000E+00   O
  |   102   0.000000E+00   0.000000E+00   O
  |   103   0.000000E+00   0.000000E+00   O
  |   104   0.000000E+00   0.000000E+00   O
  |   105   0.000000E+00   0.000000E+00   Ti
  |   106   0.000000E+00   0.000000E+00   Ti
  |   107   0.000000E+00   0.000000E+00   O
  |   108   0.000000E+00   0.000000E+00   O
  |   109   0.000000E+00   0.000000E+00   O
  |   110   0.000000E+00   0.000000E+00   O
  |   111   0.000000E+00   0.000000E+00   Ti
  |   112   0.000000E+00   0.000000E+00   Ti
  |   113   0.000000E+00   0.000000E+00   O
  |   114   0.000000E+00   0.000000E+00   O
[...]
  |    28   -0.000000   -0.000000    0.000000
  |    29    0.000000    0.000000    0.000000   -0.000000
  |    30    0.000000    0.000000    0.000000
  |    31    0.000000    0.000000   -0.000000    0.000000
  |    32   -0.000000   -0.000000   -0.000000   -0.000000
  |    33    0.000000    0.000000    0.000000    0.000000   -0.000000
  |    34   -0.000000   -0.000000    0.000000   -0.000000    0.000000
  |    35   -0.000000   -0.000000   -0.000000    0.000000
  |    36   -0.000000   -0.000000   -0.000000   -0.000000
  |    37    0.000000    0.000000   -0.000000   -0.000000
  |    38    0.000000   -0.000000    0.000000   -0.000000
  |    39   -0.000000   -0.000000   -0.000000   -0.000000   -0.000000
  |    40   -0.000000   -0.000000    0.000000   -0.000000    0.000000
  |    41    0.000000    0.000000    0.000000   -0.000000
  |    42   -0.000000   -0.000000   -0.000000   -0.000000
  |    43    0.000000    0.000000   -0.000000   -0.000000    0.000000    0.000000
  |    44    0.000000    0.000000    0.000000   -0.000000
  |    45    0.000000   -0.000000    0.000000    0.000000   -0.000000
  |    46   -0.000000   -0.000000   -0.000000   -0.000000   -0.000000
  |    47   -0.000000   -0.000000   -0.000000   -0.000000
  |    48    0.000000    0.000000    0.000000    0.000000
  |    49   -0.000000   -0.000000   -0.000000    0.000000
  |    50   -0.000000   -0.000000    0.000000    0.000000
  |    51   -0.000000   -0.000000   -0.000000    0.000000    0.000000
  |    52    0.000000    0.000000    0.000000    0.000000    0.000000
  |    53   -0.000000   -0.000000   -0.000000   -0.000000
  |    54   -0.000000   -0.000000    0.000000    0.000000
  |    55    0.000000    0.000000    0.000000
  |    56   -0.000000   -0.000000   -0.000000
  |    57   -0.000000   -0.000000   -0.000000    0.000000
  |    58    0.000000    0.000000    0.000000
  |    59   -0.000000    0.000000   -0.000000    0.000000
  |    60    0.000000    0.000000    0.000000
  |    61    0.000000    0.000000    0.000000    0.000000
  |    62    0.000000    0.000000   -0.000000   -0.000000
  |    63    0.000000    0.000000   -0.000000    0.000000   -0.000000
  |    64   -0.000000   -0.000000   -0.000000    0.000000   -0.000000
  |    65    0.000000    0.000000   -0.000000    0.000000
  |    66    0.000000    0.000000   -0.000000   -0.000000
  |    67    0.000000   -0.000000    0.000000    0.000000
  |    68    0.000000    0.000000   -0.000000    0.000000
  |    69   -0.000000   -0.000000   -0.000000   -0.000000    0.000000
  |    70    0.000000   -0.000000    0.000000    0.000000    0.000000
  |    71    0.000000    0.000000   -0.000000    0.000000
  |    72   -0.000000   -0.000000    0.000000    0.000000
  |    73   -0.000000    0.000000   -0.000000    0.000000
  |    74    0.000000   -0.000000    0.000000   -0.000000
  |    75   -0.000000   -0.000000   -0.000000    0.000000   -0.000000
  |    76    0.000000    0.000000    0.000000    0.000000   -0.000000
  |    77    0.000000   -0.000000    0.000000    0.000000
  |    78   -0.000000    0.000000   -0.000000   -0.000000
  |    79   -0.000000   -0.000000   -0.000000   -0.000000
  |    80   -0.000000   -0.000000   -0.000000    0.000000
  |    81    0.000000    0.000000    0.000000    0.000000   -0.000000
  |    82   -0.000000   -0.000000   -0.000000    0.000000    0.000000
  |    83    0.000000    0.000000    0.000000   -0.000000
  |    84    0.000000    0.000000   -0.000000   -0.000000
  |    85    0.000000    0.000000   -0.000000
  |    86   -0.000000    0.000000   -0.000000
  |    87   -0.000000    0.000000   -0.000000   -0.000000
  |    88    0.000000    0.000000   -0.000000
  |    89    0.000000   -0.000000    0.000000    0.000000
  |    90   -0.000000   -0.000000    0.000000
  |    91    0.000000   -0.000000    0.000000   -0.000000
  |    92    0.000000    0.000000    0.000000   -0.000000
  |    93    0.000000    0.000000    0.000000    0.000000    0.000000
  |    94    0.000000    0.000000   -0.000000    0.000000    0.000000
  |    95   -0.000000   -0.000000   -0.000000   -0.000000
  |    96    0.000000    0.000000    0.000000   -0.000000
  |    97    0.000000   -0.000000    0.000000   -0.000000
  |    98    0.000000    0.000000    0.000000    0.000000
  |    99    0.000000    0.000000    0.000000    0.000000    0.000000
  |   100   -0.000000   -0.000000    0.000000   -0.000000   -0.000000
  |   101    0.000000    0.000000   -0.000000    0.000000
  |   102    0.000000    0.000000   -0.000000   -0.000000
  |   103   -0.000000   -0.000000   -0.000000   -0.000000
  |   104    0.000000   -0.000000    0.000000   -0.000000
  |   105   -0.000000   -0.000000    0.000000   -0.000000    0.000000
  |   106    0.000000    0.000000    0.000000    0.000000    0.000000
  |   107   -0.000000    0.000000   -0.000000    0.000000
  |   108   -0.000000   -0.000000    0.000000    0.000000
  |   109    0.000000   -0.000000    0.000000   -0.000000
  |   110    0.000000    0.000000    0.000000    0.000000
  |   111   -0.000000    0.000000    0.000000   -0.000000   -0.000000
  |   112   -0.000000   -0.000000   -0.000000    0.000000   -0.000000
  |   113    0.000000   -0.000000    0.000000    0.000000
  |   114   -0.000000    0.000000   -0.000000   -0.000000
  |   115    0.000000    0.000000    0.000000
  |   116    0.000000    0.000000    0.000000
  |   117   -0.000000   -0.000000   -0.000000   -0.000000
  |   118   -0.000000   -0.000000   -0.000000
  |   119   -0.000000    0.000000   -0.000000    0.000000
  |   120   -0.000000   -0.000000   -0.000000
  |   121    0.000000    0.000000    0.000000    0.000000
  |   122    0.000000   -0.000000    0.000000   -0.000000
  |   123    0.000000    0.000000    0.000000   -0.000000   -0.000000
  |   124   -0.000000   -0.000000    0.000000    0.000000    0.000000
  |   125   -0.000000   -0.000000   -0.000000   -0.000000
  |   126   -0.000000   -0.000000    0.000000    0.000000
  |   127   -0.000000   -0.000000   -0.000000    0.000000
  |   128   -0.000000    0.000000   -0.000000   -0.000000
  |   129   -0.000000    0.000000    0.000000   -0.000000   -0.000000
  |   130   -0.000000   -0.000000   -0.000000    0.000000    0.000000
  |   131    0.000000   -0.000000    0.000000   -0.000000
  |   132   -0.000000    0.000000   -0.000000    0.000000
  |   133   -0.000000   -0.000000   -0.000000   -0.000000
  |   134    0.000000    0.000000    0.000000   -0.000000
  |   135    0.000000    0.000000    0.000000    0.000000    0.000000
  |   136   -0.000000   -0.000000   -0.000000    0.000000    0.000000
  |   137    0.000000    0.000000    0.000000    0.000000
  |   138    0.000000    0.000000    0.000000    0.000000
  |   139   -0.000000   -0.000000   -0.000000   -0.000000
  |   140    0.000000   -0.000000    0.000000    0.000000
  |   141   -0.000000   -0.000000    0.000000   -0.000000   -0.000000
  |   142   -0.000000   -0.000000    0.000000    0.000000   -0.000000
  |   143    0.000000    0.000000    0.000000    0.000000
  |   144    0.000000   -0.000000    0.000000   -0.000000
  |   145   -0.000000   -0.000000    0.000000
  |   146   -0.000000   -0.000000   -0.000000
  |   147   -0.000000   -0.000000   -0.000000   -0.000000
  |   148   -0.000000   -0.000000   -0.000000
  |   149   -0.000000   -0.000000    0.000000    0.000000
  |   150    0.000000    0.000000   -0.000000
  |   151    0.000000    0.000000    0.000000   -0.000000
  |   152    0.000000    0.000000    0.000000   -0.000000
  |   153    0.000000    0.000000    0.000000   -0.000000   -0.000000
  |   154    0.000000    0.000000    0.000000    0.000000    0.000000
  |   155   -0.000000    0.000000   -0.000000   -0.000000
  |   156    0.000000    0.000000    0.000000    0.000000
  |   157    0.000000    0.000000   -0.000000   -0.000000
  |   158    0.000000    0.000000    0.000000    0.000000
  |   159    0.000000   -0.000000    0.000000    0.000000   -0.000000
  |   160    0.000000    0.000000    0.000000    0.000000    0.000000
  |   161    0.000000   -0.000000    0.000000   -0.000000
  |   162   -0.000000    0.000000   -0.000000    0.000000
  |   163   -0.000000    0.000000   -0.000000   -0.000000
  |   164   -0.000000    0.000000   -0.000000   -0.000000
  |   165    0.000000    0.000000    0.000000   -0.000000   -0.000000
  |   166    0.000000    0.000000   -0.000000    0.000000   -0.000000
  |   167   -0.000000   -0.000000    0.000000    0.000000
  |   168    0.000000    0.000000    0.000000   -0.000000
  |   169    0.000000   -0.000000    0.000000    0.000000
  |   170   -0.000000    0.000000   -0.000000   -0.000000
  |   171   -0.000000    0.000000   -0.000000   -0.000000   -0.000000
  |   172    0.000000    0.000000    0.000000   -0.000000   -0.000000
  |   173   -0.000000    0.000000   -0.000000   -0.000000
  |   174    0.000000    0.000000    0.000000    0.000000
  |   175   -0.000000   -0.000000   -0.000000
  |   176    0.000000    0.000000    0.000000
  |   177    0.000000    0.000000    0.000000    0.000000
  |   178   -0.000000   -0.000000   -0.000000
  |   179   -0.000000    0.000000   -0.000000   -0.000000
  |   180    0.000000    0.000000    0.000000
  |   181    0.000000    0.000000   -0.000000    0.000000
  |   182    0.000000   -0.000000    0.000000    0.000000
  |   183    0.000000   -0.000000    0.000000    0.000000   -0.000000
  |   184   -0.000000    0.000000   -0.000000   -0.000000    0.000000
  |   185   -0.000000    0.000000   -0.000000   -0.000000
  |   186    0.000000   -0.000000    0.000000    0.000000
  |   187   -0.000000   -0.000000   -0.000000    0.000000
  |   188   -0.000000   -0.000000   -0.000000    0.000000
  |   189   -0.000000   -0.000000   -0.000000    0.000000   -0.000000
  |   190   -0.000000   -0.000000   -0.000000    0.000000    0.000000
  |   191   -0.000000   -0.000000    0.000000    0.000000
  |   192    0.000000   -0.000000    0.000000    0.000000
  |   193   -0.000000   -0.000000   -0.000000   -0.000000
  |   194   -0.000000   -0.000000   -0.000000    0.000000
  |   195   -0.000000    0.000000    0.000000   -0.000000    0.000000
  |   196   -0.000000    0.000000   -0.000000   -0.000000   -0.000000
  |   197   -0.000000   -0.000000    0.000000    0.000000
  |   198   -0.000000   -0.000000   -0.000000    0.000000
  |   199    0.000000    0.000000    0.000000   -0.000000
  |   200   -0.000000   -0.000000    0.000000   -0.000000
  |   201    0.000000    0.000000   -0.000000   -0.000000   -0.000000
  |   202   -0.000000    0.000000   -0.000000   -0.000000   -0.000000
  |   203   -0.000000   -0.000000   -0.000000    0.000000
  |   204    0.000000    0.000000    0.000000    0.000000
  |   205    0.000000    0.000000    0.000000
  |   206   -0.000000   -0.000000   -0.000000
  |   207    0.000000   -0.000000    0.000000    0.000000
  |   208    0.000000    0.000000    0.000000
  |   209   -0.000000   -0.000000   -0.000000    0.000000
  |   210   -0.000000   -0.000000   -0.000000
  |   211   -0.000000   -0.000000    0.000000   -0.000000
  |   212   -0.000000    0.000000   -0.000000   -0.000000
  |   213    0.000000   -0.000000   -0.000000    0.000000   -0.000000
  |   214    0.000000   -0.000000    0.000000   -0.000000    0.000000
  |   215   -0.000000    0.000000   -0.000000    0.000000
  |   216   -0.000000    0.000000   -0.000000   -0.000000
  |   217   -0.000000   -0.000000   -0.000000   -0.000000
  |   218    0.000000    0.000000    0.000000   -0.000000
  |   219    0.000000    0.000000   -0.000000   -0.000000   -0.000000
  |   220    0.000000   -0.000000    0.000000    0.000000    0.000000
  |   221   -0.000000    0.000000   -0.000000    0.000000
  |   222    0.000000    0.000000    0.000000   -0.000000
  |   223    0.000000   -0.000000    0.000000    0.000000
  |   224    0.000000    0.000000    0.000000    0.000000
  |   225   -0.000000    0.000000   -0.000000   -0.000000    0.000000
  |   226   -0.000000    0.000000   -0.000000   -0.000000   -0.000000
  |   227   -0.000000   -0.000000    0.000000   -0.000000
  |   228    0.000000    0.000000    0.000000   -0.000000
  |   229    0.000000    0.000000    0.000000   -0.000000
  |   230    0.000000   -0.000000    0.000000    0.000000
  |   231    0.000000    0.000000   -0.000000   -0.000000    0.000000
  |   232   -0.000000   -0.000000    0.000000   -0.000000   -0.000000
  |   233    0.000000   -0.000000    0.000000    0.000000
  |   234   -0.000000   -0.000000    0.000000    0.000000
  |   235    0.000000    0.000000    0.000000
  |   236    0.000000    0.000000    0.000000
  |   237   -0.000000   -0.000000    0.000000    0.000000
  |   238   -0.000000   -0.000000    0.000000
  |   239    0.000000    0.000000    0.000000    0.000000
  |   240   -0.000000   -0.000000   -0.000000
  |
  | Total    0.000000
 
  Writing Mulliken decomposition to disk ...

  Mulliken analysis                                       :  max(cpu_time)    wall_clock(cpu1)
  | Time for Mulliken analysis                            :        220.984             221.020
  | Total time for Mulliken analysis                      :        220.984             221.020
------------------------------------------------------------

------------------------------------------------------------------------------
  Final output of selected total energy values:

  The following output summarizes some interesting total energy values
  at the end of a run (AFTER all relaxation, molecular dynamics, etc.).

  | Total energy of the DFT / Hartree-Fock s.c.f. calculation      :       -1782663.569634091 eV
  | Final zero-broadening corrected energy (caution - metals only) :       -1782663.569634091 eV
  | For reference only, the value of 1 Hartree used in FHI-aims is :             27.211384500 eV
  | For reference only, the overall average (free atom contribution
  | + realspace contribution) of the electrostatic potential after
  | s.c.f. convergence is                                          :             -5.379204074 eV

  Before relying on these values, please be sure to understand exactly which
  total energy value is referred to by a given number. Different objects may
  all carry the same name 'total energy'. Definitions:

  Total energy of the DFT / Hartree-Fock s.c.f. calculation:
  | Note that this energy does not include ANY quantities calculated after the
  | s.c.f. cycle, in particular not ANY RPA, MP2, etc. many-body perturbation terms.
  | Scalar relativistic effects have been included in the 'scaled ZORA' approximation.

  Final zero-broadening corrected energy:
  | For metallic systems only, a broadening of the occupation numbers at the Fermi
  | level can be extrapolated back to zero broadening by an electron-gas inspired
  | formula. For all systems that are not real metals, this value can be
  | meaningless and should be avoided.

------------------------------------------------------------------------------
  Methods described in the following list of references were used in this FHI-aims run.
  If you publish the results, please make sure to cite these reference if they apply.
  FHI-aims is an academic code, and for our developers (often, Ph.D. students
  and postdocs), scientific credit in the community is essential.
  Thank you for helping us!

  For any use of FHI-aims, please cite:

    Volker Blum, Ralf Gehrke, Felix Hanke, Paula Havu, Ville Havu,
    Xinguo Ren, Karsten Reuter, and Matthias Scheffler
    'Ab initio molecular simulations with numeric atom-centered orbitals'
    Computer Physics Communications 180, 2175-2196 (2009)
    http://doi.org/10.1016/j.cpc.2009.06.022


  The provided symmetry information was generated with SPGlib:

    Atsushi Togo, Yusuke Seto, Dimitar Pashov
    SPGlib 1.7.3 obtained from http://spglib.sourceforge.net
    Licence: New BSD license
    Copyright (C) 2008 Atsushi Togo


  The ELSI infrastructure was used in your run to solve the Kohn-Sham electronic structure.
  Please check out https://wordpress.elsi-interchange.org to learn more.
  If scalability is important for your project, please acknowledge ELSI by citing:

    V. W-z. Yu, F. Corsetti, A. Garcia, W. P. Huhn, M. Jacquelin, W. Jia,
    B. Lange, L. Lin, J. Lu, W. Mi, A. Seifitokaldani, A. Vazquez-Mayagoitia,
    C. Yang, H. Yang, and V. Blum
    'ELSI: A unified software interface for Kohn-Sham electronic structure solvers'
    Computer Physics Communications 222, 267-285 (2018).
    http://doi.org/10.1016/j.cpc.2017.09.007


  For the real-space grid partitioning and parallelization used in this calculation, please cite:

    Ville Havu, Volker Blum, Paula Havu, and Matthias Scheffler,
    'Efficient O(N) integration for all-electron electronic structure calculation'
    'using numerically tabulated basis functions'
    Journal of Computational Physics 228, 8367-8379 (2009).
    http://doi.org/10.1016/j.jcp.2009.08.008

  Of course, there are many other important community references, e.g., those cited in the
  above references. Our list is limited to references that describe implementations in the
  FHI-aims code. The reason is purely practical (length of this list) - please credit others as well.

 * A warning was issued further up regarding the CPU load.
   Some CPUs do not participate in the eigenvalue solution.
   In corner cases, this may be the correct behavior. Otherwise,
   consider using a scalapack/elpa version of the code for a parallel treatment.

------------------------------------------------------------
          Leaving FHI-aims.
          Date     :  20241210, Time     :  145411.778

          Computational steps:
          | Number of self-consistency cycles          :           23
          | Number of SCF (re)initializations          :            1

          Detailed time accounting                     :  max(cpu_time)    wall_clock(cpu1)
          | Total time                                  :     7076.947 s        7077.146 s
          | Preparation time                            :        0.514 s           0.512 s
          | Boundary condition initalization            :        0.114 s           0.115 s
          | Grid partitioning                           :        2.059 s           2.060 s
          | Preloading free-atom quantities on grid     :        4.356 s           4.357 s
          | Free-atom superposition energy              :        0.531 s           0.531 s
          | Total time for integrations                 :      461.127 s         461.133 s
          | Total time for solution of K.-S. equations  :     3995.876 s        3995.986 s
          | Total time for density update               :      547.004 s         547.021 s
          | Total time for mixing & preconditioning     :      789.075 s         789.098 s
          | Total time for Hartree multipole update     :        0.533 s           0.531 s
          | Total time for Hartree multipole sum        :       51.456 s          51.459 s
          | Total time for total energy evaluation      :        0.043 s           0.090 s
          | Total time for scaled ZORA corrections      :     1003.501 s        1003.531 s
          | Total time for Mulliken analysis            :      221.028 s         221.020 s

          Partial memory accounting:
          | Residual value for overall tracked memory usage across tasks:     0.000000 MB (should be 0.000000 MB)
          | Peak values for overall tracked memory usage:
          |   Minimum:      536.858 MB (on task 19 after allocating kdm)
          |   Maximum:     1746.502 MB (on task  4 after allocating eval_tmp)
          |   Average:      915.263 MB
          | Largest tracked array allocation:
          |   Minimum:      271.220 MB (KS_eigenvector_complex on task  0)
          |   Maximum:      273.793 MB (KS_eigenvector_complex on task  1)
          |   Average:      272.024 MB
          Note:  These values currently only include a subset of arrays which are explicitly tracked.
          The "true" memory usage will be greater.

          Have a nice day.
------------------------------------------------------------
