------------------------------------------------------------
          Invoking FHI-aims ...

          When using FHI-aims, please cite the following reference:

            Volker Blum, Ralf Gehrke, Felix Hanke, Paula Havu,
            Ville Havu, Xinguo Ren, Karsten Reuter, and Matthias Scheffler,
            'Ab Initio Molecular Simulations with Numeric Atom-Centered Orbitals',
            Computer Physics Communications 180, 2175-2196 (2009)

          In addition, many other developments in FHI-aims are likely important for
          your particular application. If so, please cite them. A partial list of references
          is written at the end of this file. Thank you for giving credit to the authors
          of these developments.

          For general information about FHI-aims please find us at

            https://fhi-aims.org

          Online tutorials can be found at

            https://fhi-aims-club.gitlab.io/tutorials/tutorials-overview/

          For any questions about FHI-aims, please visit our slack channel at

            https://fhi-aims.slack.com

          and our main development and support site at

            https://aims-git.rz-berlin.mpg.de .

          The latter site, in particular, has a wiki to collect information, as well
          as an issue tracker to log discussions, suggest improvements, and report issues
          or bugs. https://aims-git.rz-berlin.mpg.de is also the main development site
          of the project and all new and updated code versions can be obtained there.
          Please send an email to aims-coordinators@fhi-berlin.mpg.de and we will add
          you to these sites. They are for you and everyone is welcome there.

------------------------------------------------------------



  Date     :  20240711, Time     :  020312.492
  Time zero on CPU 1             :   0.293424000000000E+00  s.
  Internal wall clock time zero  :           489895392.492  s.

  FHI-aims created a unique identifier for this run for later identification
  aims_uuid : 95528E25-3AAE-4802-A81F-FE76A2DDC0DC

  Build configuration of the current instance of FHI-aims
  -------------------------------------------------------
  FHI-aims version      : 240605
  Commit number         : b001b2e18
  CMake host system     : Linux-6.5.0-41-generic
  CMake version         : 3.22.1
  Fortran compiler      : /opt/intel/oneapi/mpi/2021.12/bin/mpiifort (IntelLLVM) version 2024.1.0
  Fortran compiler flags: -fc=ifx -O3 -ip -fp-model precise
  C compiler            : /opt/intel/oneapi/mpi/2021.12/bin/mpiicc (IntelLLVM) version 2024.1.0
  C compiler flags      : -cc=icx -O3 -ip -fp-model precise -std=gnu99
  C++ compiler          : /opt/intel/oneapi/mpi/2021.12/bin/mpiicpc (IntelLLVM) version 2024.1.0
  C++ compiler flags    : -cxx=icpx -O3 -ip -fp-model precise -std=c++11
  HIP compiler          :
  HIP compiler flags    :
  HIP GPU arch          :
  Using MPI
  Using ScaLAPACK
  Using LibXC
  Using i-PI
  Using RLSY
  Linking against: /opt/intel/oneapi/mkl/2024.1/lib/intel64/libmkl_intel_lp64.so
                   /opt/intel/oneapi/mkl/2024.1/lib/intel64/libmkl_sequential.so
                   /opt/intel/oneapi/mkl/2024.1/lib/intel64/libmkl_core.so
                   /opt/intel/oneapi/mkl/2024.1/lib/intel64/libmkl_blacs_intelmpi_lp64.so
                   /opt/intel/oneapi/mkl/2024.1/lib/intel64/libmkl_scalapack_lp64.so
                   /opt/intel/oneapi/mkl/2024.1/lib/intel64/libmkl_core.so

  Using       24 parallel tasks.
  Task        0 on host RSL-arvutus reporting.
  Task        1 on host RSL-arvutus reporting.
  Task        2 on host RSL-arvutus reporting.
  Task        3 on host RSL-arvutus reporting.
  Task        4 on host RSL-arvutus reporting.
  Task        5 on host RSL-arvutus reporting.
  Task        6 on host RSL-arvutus reporting.
  Task        7 on host RSL-arvutus reporting.
  Task        8 on host RSL-arvutus reporting.
  Task        9 on host RSL-arvutus reporting.
  Task       10 on host RSL-arvutus reporting.
  Task       11 on host RSL-arvutus reporting.
  Task       12 on host RSL-arvutus reporting.
  Task       13 on host RSL-arvutus reporting.
  Task       14 on host RSL-arvutus reporting.
  Task       15 on host RSL-arvutus reporting.
  Task       16 on host RSL-arvutus reporting.
  Task       17 on host RSL-arvutus reporting.
  Task       18 on host RSL-arvutus reporting.
  Task       19 on host RSL-arvutus reporting.
  Task       20 on host RSL-arvutus reporting.
  Task       21 on host RSL-arvutus reporting.
  Task       22 on host RSL-arvutus reporting.
  Task       23 on host RSL-arvutus reporting.

  Memory overcommitment is allowed on your operating system.

  Obtaining array dimensions for all initial allocations:
  
  -----------------------------------------------------------------------
  Parsing control.in (first pass over file, find array dimensions only).
  The contents of control.in will be repeated verbatim below
  unless switched off by setting 'verbatim_writeout .false.' .
  in the first line of control.in .
  -----------------------------------------------------------------------
  
  xc              scan
  relativistic    atomic_zora scalar
  k_grid          8 8 8
  relax_geometry  bfgs 5e-3
  relax_unit_cell full
  ################################################################################
  #
  #  FHI-aims code project
  #  VB, Fritz-Haber Institut, 2007
  #
  #  Suggested "safe" defaults for Ti atom (to be pasted into control.in file)
  #
  ################################################################################
    species        Ti
  #     global species definitions
      nucleus             22
      mass                47.867
  #
      l_hartree           8
  #
      cut_pot             4.0          2.0  1.0
      basis_dep_cutoff    0.d0
  #
      radial_base         48 7.0
      radial_multiplier   2
      angular_grids       specified
        division   0.0754  110
        division   0.1133  194
        division   0.6583  302
        division   0.7218  590
  #      division   0.7553  770
  #      division   7.0005  974
  #      outer_grid  974
        outer_grid  590
  ################################################################################
  #
  #  Definition of "minimal" basis
  #
  ################################################################################
  #     valence basis states
      valence      4  s   2.
      valence      3  p   6.
      valence      3  d   2.
  #     ion occupancy
      ion_occ      4  s   1.
      ion_occ      3  p   6.
      ion_occ      3  d   1.
  ################################################################################
  #
  #  Suggested additional basis functions. For production calculations,
  #  uncomment them one after another (the most important basis functions are
  #  listed first).
  #
  #  Constructed for dimers: 1.6 A, 1.85 A, 2.5 A, 3.25 A, 4.25 A
  #
  ################################################################################
  #  "First tier" - improvements: -396.25 meV to -19.41 meV
       hydro 4 f 8
       hydro 3 d 2.7
       ionic 4 p auto
       hydro 5 g 11.6
       ionic 4 s auto
  #  "Second tier" - improvements: -16.30 meV to -2.03 meV
  #     hydro 3 d 4.4
  #     hydro 6 h 16
  #     hydro 4 f 9.4
  #     hydro 4 p 4.5
  #     hydro 1 s 0.5
  #  "Third tier" - improvements: -6.28 meV to -0.37 meV
  #     hydro 4 d 6.4
  #     hydro 4 f 10
  #     hydro 5 g 12
  #     hydro 2 p 1.7
  #     hydro 6 h 16.4
  #     hydro 4 s 3.8
  #  Further basis functions: -0.45 meV and smaller improvements
  #     hydro 3 d 8.8
  #     hydro 5 p 18
  #     hydro 4 f 22.4
  #     hydro 5 f 7.2  # -0.16 meV
  #     hydro 3 d 2.1  # -0.11 meV
  #     hydro 5 g 7.4  # -0.09 meV
  ################################################################################
  #
  #  FHI-aims code project
  #  VB, Fritz-Haber Institut, 2007
  #
  #  Suggested "safe" defaults for O atom (to be pasted into control.in file)
  #
  ################################################################################
    species        O
  #     global species definitions
      nucleus             8
      mass                15.9994
  #
      l_hartree           8
  #
      cut_pot             4.0  2.0  1.0
      basis_dep_cutoff    0.d0
  #
      radial_base         36 7.0
      radial_multiplier   2
       angular_grids specified
        division   0.4087  110
        division   0.5181  194
        division   0.6184  302
        division   0.7315  434
        division   0.7934  590
  #      division   0.9656  770
  #      division   1.4041  974
  #      outer_grid 974
        outer_grid 590
  ################################################################################
  #
  #  Definition of "minimal" basis
  #
  ################################################################################
  #     valence basis states
      valence      2  s   2.
      valence      2  p   4.
  #     ion occupancy
      ion_occ      2  s   1.
      ion_occ      2  p   3.
  ################################################################################
  #
  #  Suggested additional basis functions. For production calculations,
  #  uncomment them one after another (the most important basis functions are
  #  listed first).
  #
  #  Constructed for dimers: 1.0 A, 1.208 A, 1.5 A, 2.0 A, 3.0 A
  #
  ################################################################################
  #  "First tier" - improvements: -699.05 meV to -159.38 meV
       hydro 2 p 1.8
       hydro 3 d 7.6
       hydro 3 s 6.4
  #  "Second tier" - improvements: -49.91 meV to -5.39 meV
       hydro 4 f 11.6
       hydro 3 p 6.2
       hydro 3 d 5.6
       hydro 5 g 17.6
       hydro 1 s 0.75
  #  "Third tier" - improvements: -2.83 meV to -0.50 meV
  #     ionic 2 p auto
  #     hydro 4 f 10.8
  #     hydro 4 d 4.7
  #     hydro 2 s 6.8
  #  "Fourth tier" - improvements: -0.40 meV to -0.12 meV
  #     hydro 3 p 5
  #     hydro 3 s 3.3
  #     hydro 5 g 15.6
  #     hydro 4 f 17.6
  #     hydro 4 d 14
  # Further basis functions - -0.08 meV and below
  #     hydro 3 s 2.1
  #     hydro 4 d 11.6
  #     hydro 3 p 16
  #     hydro 2 s 17.2
  
  -----------------------------------------------------------------------
  Completed first pass over input file control.in .
  -----------------------------------------------------------------------
  
  
  -----------------------------------------------------------------------
  Parsing geometry.in (first pass over file, find array dimensions only).
  The contents of geometry.in will be repeated verbatim below
  unless switched off by setting 'verbatim_writeout .false.' .
  in the first line of geometry.in .
  -----------------------------------------------------------------------
  
  lattice_vector 4.594000 0.000000 0.000000
  lattice_vector 0.000000 4.594000 0.000000
  lattice_vector 0.000000 0.000000 2.958000
  
  atom_frac 0.000000 0.000000 0.000000 Ti
  atom_frac 0.500000 0.500000 0.500000 Ti
  atom_frac 0.305000 0.305000 0.000000 O
  atom_frac 0.695000 0.695000 0.000000 O
  atom_frac 0.305000 0.695000 0.500000 O
  atom_frac 0.695000 0.305000 0.500000 O
  
  -----------------------------------------------------------------------
  Completed first pass over input file geometry.in .
  -----------------------------------------------------------------------
  

  Basic array size parameters:
  | Number of species                 :        2
  | Number of atoms                   :        6
  | Number of lattice vectors         :        3
  | Max. basis fn. angular momentum   :        4
  | Max. atomic/ionic basis occupied n:        4
  | Max. number of basis fn. types    :        3
  | Max. radial fns per species/type  :        8
  | Max. logarithmic grid size        :     1383
  | Max. radial integration grid size :       97
  | Max. angular integration grid size:      590
  | Max. angular grid division number :        8
  | Radial grid for Hartree potential :     1383
  | Number of spin channels           :        1

------------------------------------------------------------
          Reading file control.in.
------------------------------------------------------------
  WARNING: The in-house xc SCAN implementation has been deprecated.
  WARNING: Using xc dfauto SCAN implementation instead.
  XC: Using the parameter-free meta-GGA functional SCAN.
  Scalar relativistic treatment of kinetic energy: on-site free-atom approximation to ZORA.
  Found k-point grid:         8         8         8
  Geometry relaxation: Modified BFGS - TRM (trust radius method) for lattice optimization.
  Convergence accuracy for geometry relaxation: Maximum force <   0.500000E-02 eV/A.
 
  Reading configuration options for species Ti                  .
  | Found nuclear charge :  22.0000
  | Found atomic mass :    47.8670000000000      amu
  | Found l_max for Hartree potential  :   8
  | Found cutoff potl. onset [A], width [A], scale factor :    4.00000    2.00000    1.00000
  | Threshold for basis-dependent cutoff potential is   0.000000E+00
  | Found data for basic radial integration grid :    48 points, outermost radius =    7.000 A
  | Found multiplier for basic radial grid :   2
  | Found angular grid specification: user-specified.
  | Specified grid contains     5 separate shells.
  | Check grid settings after all constraints further below.
  | Found free-atom valence shell :  4 s   2.000
  | Found free-atom valence shell :  3 p   6.000
  | Found free-atom valence shell :  3 d   2.000
  | Found free-ion valence shell :  4 s   1.000
  | Found free-ion valence shell :  3 p   6.000
  | Found free-ion valence shell :  3 d   1.000
  | Found hydrogenic basis function :  4 f   8.000
  | Found hydrogenic basis function :  3 d   2.700
  | Found ionic basis function :  4 p , default cutoff radius.
  | Found hydrogenic basis function :  5 g  11.600
  | Found ionic basis function :  4 s , default cutoff radius.
 | Encountered keyword species, ending the description of species Ti                  .
  Species Ti                  : Missing cutoff potential type.
  Defaulting to exp(1/x)/(1-x)^2 type cutoff potential.
  Species Ti: No 'logarithmic' tag. Using default grid for free atom:
  | Default logarithmic grid data [bohr] : 0.1000E-03 0.1000E+03 0.1012E+01
  | Will include ionic basis functions of  2.0-fold positive Ti                   ion.
  Species Ti: On-site basis accuracy parameter (for Gram-Schmidt orthonormalisation) not specified.
  Using default value basis_acc =  0.1000000E-03.
  Species Ti                  : Using default innermost maximum threshold i_radial=  2 for radial functions.
  Species Ti                  : Default cutoff onset for free atom density etc. : 0.40000000E+01 AA.
  Species Ti                  : Basic radial grid will be enhanced according to radial_multiplier =   2, to contain    97 grid points.
 
  Reading configuration options for species O                   .
  | Found nuclear charge :   8.0000
  | Found atomic mass :    15.9994000000000      amu
  | Found l_max for Hartree potential  :   8
  | Found cutoff potl. onset [A], width [A], scale factor :    4.00000    2.00000    1.00000
  | Threshold for basis-dependent cutoff potential is   0.000000E+00
  | Found data for basic radial integration grid :    36 points, outermost radius =    7.000 A
  | Found multiplier for basic radial grid :   2
  | Found angular grid specification: user-specified.
  | Specified grid contains     6 separate shells.
  | Check grid settings after all constraints further below.
  | Found free-atom valence shell :  2 s   2.000
  | Found free-atom valence shell :  2 p   4.000
  | Found free-ion valence shell :  2 s   1.000
  | Found free-ion valence shell :  2 p   3.000
  | Found hydrogenic basis function :  2 p   1.800
  | Found hydrogenic basis function :  3 d   7.600
  | Found hydrogenic basis function :  3 s   6.400
  | Found hydrogenic basis function :  4 f  11.600
  | Found hydrogenic basis function :  3 p   6.200
  | Found hydrogenic basis function :  3 d   5.600
  | Found hydrogenic basis function :  5 g  17.600
  | Found hydrogenic basis function :  1 s   0.750
  Species O                   : Missing cutoff potential type.
  Defaulting to exp(1/x)/(1-x)^2 type cutoff potential.
  Species O : No 'logarithmic' tag. Using default grid for free atom:
  | Default logarithmic grid data [bohr] : 0.1000E-03 0.1000E+03 0.1012E+01
  Species O : On-site basis accuracy parameter (for Gram-Schmidt orthonormalisation) not specified.
  Using default value basis_acc =  0.1000000E-03.
  Species O                   : Using default innermost maximum threshold i_radial=  2 for radial functions.
  Species O                   : Default cutoff onset for free atom density etc. : 0.40000000E+01 AA.
  Species O                   : Basic radial grid will be enhanced according to radial_multiplier =   2, to contain    73 grid points.
 
  Finished reading input file 'control.in'.
 
------------------------------------------------------------


------------------------------------------------------------
          Reading geometry description geometry.in.
------------------------------------------------------------
  | The smallest distance between any two atoms is         1.26689494 AA.
  | The first atom of this pair is atom number                      2 .
  | The second atom of this pair is atom number                     6 .
  | Wigner-Seitz cell of the first atom image           0     1     0 .
  | (The Wigner-Seitz cell of the second atom is 0 0 0  by definition.)

  Symmetry information by spglib:
  | Precision set to  0.1E-04
  | Number of Operations  : 8
  | Space group           : 65
  | International         : Cmmm
  | Schoenflies           : D2h^19
  Input structure read successfully.
  The structure contains        6 atoms,  and a total of         76.000 electrons.

  Input geometry:
  | Unit cell:
  |        4.59400000        0.00000000        0.00000000
  |        0.00000000        4.59400000        0.00000000
  |        0.00000000        0.00000000        2.95800000
  | Atomic structure:
  |       Atom                x [A]            y [A]            z [A]
  |    1: Species Ti            0.00000000        0.00000000        0.00000000
  |    2: Species Ti            2.29700000        2.29700000        1.47900000
  |    3: Species O             1.40117000        1.40117000        0.00000000
  |    4: Species O             3.19283000        3.19283000        0.00000000
  |    5: Species O             1.40117000        3.19283000        1.47900000
  |    6: Species O             3.19283000        1.40117000        1.47900000

  Lattice parameters for 3D lattice (in Angstroms) :     4.594000    4.594000    2.958000
  Angle(s) between unit vectors (in degrees)       :    90.000000   90.000000   90.000000


  Quantities derived from the lattice vectors (in Angstrom^-1):
  | Reciprocal lattice vector 1:  1.367694  0.000000  0.000000
  | Reciprocal lattice vector 2:  0.000000  1.367694  0.000000
  | Reciprocal lattice vector 3:  0.000000  0.000000  2.124133
  | Unit cell volume                               :   0.624281E+02  Angstrom^3

  Fractional coordinates:
                         L1                L2                L3
       atom_frac         0.00000000        0.00000000        0.00000000  Ti
       atom_frac         0.50000000        0.50000000        0.50000000  Ti
       atom_frac         0.30500000        0.30500000        0.00000000  O
       atom_frac         0.69500000        0.69500000        0.00000000  O
       atom_frac         0.30500000        0.69500000        0.50000000  O
       atom_frac         0.69500000        0.30500000        0.50000000  O

  Slab Identifier: This seems to be a bulk system.
 
  Finished reading input file 'geometry.in'.
 

 
  Consistency checks for stacksize environment parameter are next.
 
  | Maximum stacksize for task 0: unlimited
  | Maximum stacksize for task 1: unlimited
  | Maximum stacksize for task 2: unlimited
  | Maximum stacksize for task 3: unlimited
  | Maximum stacksize for task 4: unlimited
  | Maximum stacksize for task 5: unlimited
  | Maximum stacksize for task 6: unlimited
  | Maximum stacksize for task 7: unlimited
  | Maximum stacksize for task 8: unlimited
  | Maximum stacksize for task 9: unlimited
  | Maximum stacksize for task 10: unlimited
  | Maximum stacksize for task 11: unlimited
  | Maximum stacksize for task 12: unlimited
  | Maximum stacksize for task 13: unlimited
  | Maximum stacksize for task 14: unlimited
  | Maximum stacksize for task 15: unlimited
  | Maximum stacksize for task 16: unlimited
  | Maximum stacksize for task 17: unlimited
  | Maximum stacksize for task 18: unlimited
  | Maximum stacksize for task 19: unlimited
  | Maximum stacksize for task 20: unlimited
  | Maximum stacksize for task 21: unlimited
  | Maximum stacksize for task 22: unlimited
  | Maximum stacksize for task 23: unlimited
  | Current stacksize for task 0: unlimited
  | Current stacksize for task 1: unlimited
  | Current stacksize for task 2: unlimited
  | Current stacksize for task 3: unlimited
  | Current stacksize for task 4: unlimited
  | Current stacksize for task 5: unlimited
  | Current stacksize for task 6: unlimited
  | Current stacksize for task 7: unlimited
  | Current stacksize for task 8: unlimited
  | Current stacksize for task 9: unlimited
  | Current stacksize for task 10: unlimited
  | Current stacksize for task 11: unlimited
  | Current stacksize for task 12: unlimited
  | Current stacksize for task 13: unlimited
  | Current stacksize for task 14: unlimited
  | Current stacksize for task 15: unlimited
  | Current stacksize for task 16: unlimited
  | Current stacksize for task 17: unlimited
  | Current stacksize for task 18: unlimited
  | Current stacksize for task 19: unlimited
  | Current stacksize for task 20: unlimited
  | Current stacksize for task 21: unlimited
  | Current stacksize for task 22: unlimited
  | Current stacksize for task 23: unlimited
 
  Consistency checks for the contents of control.in are next.
 
  MPI_IN_PLACE appears to work with this MPI implementation.
  | Keeping use_mpi_in_place .true. (see manual).
  Target number of points in a grid batch is not set. Defaulting to  100
  Method for grid partitioning is not set. Defaulting to parallel hash+maxmin partitioning.
  Batch size limit is not set. Defaulting to    200
  By default, will store active basis functions for each batch.
  If in need of memory, prune_basis_once .false. can be used to disable this option.
  communication_type for Hartree potential was not specified.
  Defaulting to calc_hartree .
  Defaulting to Pulay charge density mixer.
  Pulay mixer: Number of relevant iterations not set.
  Defaulting to    8 iterations.
  Pulay mixer: Number of initial linear mixing iterations not set.
  Defaulting to    0 iterations.
  Work space size for distributed Hartree potential not set.
  Defaulting to   0.200000E+03 MB.
  Mixing parameter for charge density mixing has not been set.
  Using default: charge_mix_param =     0.0500.
  The mixing parameter will be adjusted in iteration number     2 of each s.c.f. cycle (i.e., each geometry step).
  Algorithm-dependent basis array size parameters:
  | n_max_pulay                         :        8
  Maximum number of self-consistency iterations not provided.
  Presetting  1000 iterations.
  Presetting      1001 iterations before the initial mixing cycle
  is restarted anyway using the sc_init_iter criterion / keyword.
  Presetting a factor      1.000 between actual scf density residual
  and density convergence criterion sc_accuracy_rho below which sc_init_iter
  takes no effect.
 * No s.c.f. convergence criteria (sc_accuracy_*) were provided in control.in.
 * The run will proceed with a reasonable default guess, but please check whether.
 * the s.c.f. cycles seem to take too much or too little time.
  No maximum number of relaxation steps, defaulting to     1000
  Default initial Hessian is Lindh matrix (thres = 15.00) plus  0.200000E+01 eV/A^2 times unity.
  No maximum energy tolerance for TRM/BFGS moves, defaulting to   0.150000E-02
  Maximum energy tolerance by which TRM/BFGS trajectory may increase over multiple steps:   0.300000E-02
  No harmonic length scale. Defaulting to   0.250000E-01 A.
  No trust radius initializer. Defaulting to   0.200000E+00 A.
  Unit cell relaxation: Unit cell will be relaxed fully.
  Unit cell relaxation: Analytical stress will be used.
  Analytical stress will be computed.
  Analytical stress calculation: Only the upper triangle is calculated.
                                 Final output is symmetrized.
  Analytical stress calculation: scf convergence accuracy of stress not set.
                                 Analytical stress self-consistency will not be checked explicitly.
                                 Be sure to set other criteria like sc_accuracy_rho tight enough.
  Forces evaluation will include force correction term due to incomplete self-consistency (default).
 * Notice: The s.c.f. convergence criterion sc_accuracy_rho was not provided.
 * We used to stop in this case, and ask the user to provide reasonable
 * scf convergence criteria. However, this led some users to employ criteria
 * that led to extremely long run times, e.g., for simple relaxation.
 * We now preset a default value for sc_accuracy_rho if it is not set.
 * You may still wish to check if this setting is too tight or too loose for your needs.
 * Based on n_atoms and forces and force-correction status, FHI-aims chose sc_accuracy_rho =  0.100000E-05 .
  Force calculation: scf convergence accuracy of forces not set.
  Defaulting to 'sc_accuracy_forces not_checked'.
  Handling of forces: Unphysical translation and rotation will be removed from forces.
  No accuracy limit for integral partition fn. given. Defaulting to  0.1000E-14.
  No threshold value for u(r) in integrations given. Defaulting to  0.1000E-05.
  No occupation type (smearing scheme) given. Defaulting to Gaussian broadening, width =  0.1000E-01 eV.
  The width will be adjusted in iteration number     2 of each s.c.f. cycle (i.e., each geometry step).
  No accuracy for occupation numbers given. Defaulting to  0.1000E-12.
  No threshold value for occupation numbers given. Defaulting to  0.0000E+00.
  No accuracy for fermi level given. Defaulting to  0.1000E-19.
  Maximum # of iterations to find E_F not set. Defaulting to  200.
  Preferred method for the eigenvalue solver ('KS_method') not specified in 'control.in'.
  Defaulting to serial version, LAPACK (via ELSI), since more k-points than CPUs available.
  Will not use alltoall communication since running on < 1024 CPUs.
  Threshold for basis singularities not set.
  Default threshold for basis singularities:  0.1000E-04
  partition_type (choice of integration weights) for integrals was not specified.
  | Using a version of the partition function of Stratmann and coworkers ('stratmann_sparse').
  | At each grid point, the set of atoms used to build the partition table is smoothly restricted to
  | only those atoms whose free-atom density would be non-zero at that grid point.
  Partitioning for Hartree potential was not defined. Using partition_type for integrals.
  | Adjusted default value of keyword multip_moments_threshold to:       0.10000000E-11
  | This value may affect high angular momentum components of the Hartree potential in periodic systems.
  Spin handling was not defined in control.in. Defaulting to unpolarized case.
  No q(lm)/r^(l+1) cutoff set for long-range Hartree potential.
  | Using default value of  0.100000E-09 .
  | Verify using the multipole_threshold keyword.
  Defaulting to new monopole extrapolation.
  Density update method: automatic selection selected.
  Using density matrix based charge density update.
  Using density matrix based charge density update.
  Using packed matrix style: index .
  Geometry relaxation: A file "geometry.in.next_step" is written out by default after each step.
  | This file contains the geometry of the current relaxation step as well as
  | the current Hessian matrix needed to restart the relaxation algorithm.
  | If you do not want part or all of this information, use the keywords
  | "write_restart_geometry" or "hessian_to_restart_geometry" to switch the output off.
  Defaulting to use time-reversal symmetry for k-point grid.
  Charge integration errors on the 3D integration grid will be compensated
  by explicit normalization and distribution of residual charges.
  Use the "compensate_multipole_errors" flag to change this behaviour.
  Set 'collect_eigenvectors' to be '.true.' for all serial calculations. This is mandatory.
  Set 'collect_eigenvectors' to be '.true.' for KS_method lapack_fast and serial.
  Found potential conflicts with setting 'use_local_index' for this calculation. Will not set it.
 
  Consistency checks for the contents of geometry.in are next.
 

  Range separation radius for Ewald summation (hartree_convergence_parameter):      3.02465203 bohr.
  Number of empty states per atom not set in control.in - providing a guess from actual geometry.
  | Total number of empty states used during s.c.f. cycle:       23
  If you use a very high smearing, use empty_states (per atom!) in control.in to increase this value.

  Structure-dependent array size parameters: 
  | Maximum number of distinct radial functions  :       23
  | Maximum number of basis functions            :      236
  | Number of Kohn-Sham states (occupied + empty):       61
------------------------------------------------------------
  After read_input_data [GB]:   1045.72

  Performing system and environment tests:
  *** Environment variable OMP_NUM_THREADS is not set
  *** For performance reasons you might want to set it to 1
  | Checking for ScaLAPACK...
  | Testing pdtran()...
  | All pdtran() tests passed.
  After prepare_system [GB]:   1045.58

------------------------------------------------------------
          Preparing all fixed parts of the calculation.
------------------------------------------------------------
  Determining machine precision:
    2.225073858507201E-308
  Setting up grids for atomic and cluster calculations.

  Creating wave function, potential, and density for free atoms.
  Runtime choices for atomic solver:
  | atomic solver xc        : PW-LDA
  | compute density gradient: 1
  | compute kinetic density : T

  Species: Ti

  List of occupied orbitals and eigenvalues:
    n    l              occ      energy [Ha]    energy [eV]
    1    0           2.0000      -179.494891     -4884.3045
    2    0           2.0000       -19.686176      -535.6881
    3    0           2.0000        -2.282180       -62.1013
    4    0           2.0000        -0.163864        -4.4590
    2    1           6.0000       -16.319592      -444.0787
    3    1           6.0000        -1.419321       -38.6217
    3    2           2.0000        -0.158535        -4.3140


  Species: O

  List of occupied orbitals and eigenvalues:
    n    l              occ      energy [Ha]    energy [eV]
    1    0           2.0000       -18.786458      -511.2055
    2    0           2.0000        -0.872894       -23.7527
    2    1           4.0000        -0.337952        -9.1962


  Adding cutoff potential to free-atom effective potential.
  Creating fixed part of basis set: Ionic, confined, hydrogenic.
 
  Ti                   ion:

  List of free ionic orbitals and eigenvalues:
    n    l      energy [Ha]    energy [eV]
    1    0      -180.346512     -4907.4783
    2    0       -20.558929      -559.4369
    3    0        -3.105104       -84.4942
    4    0        -0.707661       -19.2564
    2    1       -17.189957      -467.7625
    3    1        -2.231709       -60.7279
    3    2        -0.922254       -25.0958


  List of ionic basis orbitals and eigenvalues:
    n    l      energy [Ha]    energy [eV]    outer radius [A]
    4    1        -0.527667       -14.3585       5.449321
    4    0        -0.707634       -19.2557       5.383109

 
  Ti                   hydrogenic:
 
  List of hydrogenic basis orbitals: 
    n    l      effective z      eigenvalue [eV]  inner max. [A]     outer max. [A]     outer radius [A]   
    4    3         8.000000       -54.4228           1.059019           1.059019           5.189260
    3    2         2.700000       -10.9576           1.748166           1.748166           5.449321
    5    4        11.600000       -73.2313           1.139618           1.139618           5.126207
 
 
  O                    hydrogenic:
 
  List of hydrogenic basis orbitals: 
    n    l      effective z      eigenvalue [eV]  inner max. [A]     outer max. [A]     outer radius [A]   
    2    1         1.800000       -11.0118           1.178562           1.178562           5.432602
    3    2         7.600000       -87.3183           0.624125           0.624125           4.634338
    3    0         6.400000       -61.9210           0.061167           1.081902           5.110480
    4    3        11.600000      -114.4239           0.731631           0.731631           4.522403
    3    1         6.200000       -58.1114           0.255680           1.030270           5.110480
    3    2         5.600000       -47.4083           0.847233           0.847233           5.173339
    5    4        17.600000      -168.5800           0.749740           0.749740           4.051222
    1    0         0.750000        -7.6499           0.705284           0.705284           5.366593
 
  Creating atomic-like basis functions for current effective potential.

  Species Ti                  :

  List of atomic basis orbitals and eigenvalues:
    n    l      energy [Ha]    energy [eV]    outer radius [A]
    1    0      -179.494891     -4884.3045       0.490254
    2    0       -19.686176      -535.6881       1.491292
    3    0        -2.282180       -62.1013       4.215492
    4    0        -0.163864        -4.4590       5.449321
    2    1       -16.319592      -444.0787       1.585290
    3    1        -1.419321       -38.6217       4.822253
    3    2        -0.158535        -4.3140       5.383109


  Species O                   :

  List of atomic basis orbitals and eigenvalues:
    n    l      energy [Ha]    energy [eV]    outer radius [A]
    1    0       -18.786458      -511.2055       1.433179
    2    0        -0.872894       -23.7527       5.048385
    2    1        -0.337952        -9.1962       5.301386

  Assembling full basis from fixed parts.
  | Species Ti :   atomic orbital   1 s accepted.
  | Species Ti :   atomic orbital   2 s accepted.
  | Species Ti :   atomic orbital   3 s accepted.
  | Species Ti :   atomic orbital   4 s accepted.
  | Species Ti :    ionic orbital   4 s accepted.
  | Species Ti :   atomic orbital   2 p accepted.
  | Species Ti :   atomic orbital   3 p accepted.
  | Species Ti :    ionic orbital   4 p accepted.
  | Species Ti :   atomic orbital   3 d accepted.
  | Species Ti :    hydro orbital   3 d accepted.
  | Species Ti :    hydro orbital   4 f accepted.
  | Species Ti :    hydro orbital   5 g accepted.
  | Species O :   atomic orbital   1 s accepted.
  | Species O :   atomic orbital   2 s accepted.
  | Species O :    hydro orbital   3 s accepted.
  | Species O :    hydro orbital   1 s accepted.
  | Species O :   atomic orbital   2 p accepted.
  | Species O :    hydro orbital   2 p accepted.
  | Species O :    hydro orbital   3 p accepted.
  | Species O :    hydro orbital   3 d accepted.
  | Species O :    hydro orbital   3 d accepted.
  | Species O :    hydro orbital   4 f accepted.
  | Species O :    hydro orbital   5 g accepted.
 
  Basis size parameters after reduction:
  | Total number of radial functions:       23
  | Total number of basis functions :      236
 
  Per-task memory consumption for arrays in subroutine allocate_ext:
  |           8.149848MB.
  Testing on-site integration grid accuracy.
  |  Species  Function  <phi|h_atom|phi> (log., in eV)  <phi|h_atom|phi> (rad., in eV)
           1        1              -4884.3045041830              -4884.3043561282
           1        2               -535.6881163770               -535.6881136617
           1        3                -62.1012734904                -62.1012731072
           1        4                 -4.4666614727                 -4.4665369895
           1        5                  5.3507096244                  5.3515083542
           1        6               -444.0786921184               -444.0786915427
           1        7                -38.6216821055                -38.6216819073
           1        8                 -0.0636885234                 -0.0636491586
           1        9                 -4.3143777489                 -4.3143706431
           1       10                  5.2078361839                  5.2081372407
           1       11                 27.2764219748                 27.2764220436
           1       12                 50.9925550464                 50.9925550595
           2       13               -511.2055257460               -511.2055212647
           2       14                -23.7526620512                -23.7526619950
           2       15                 17.3662248345                 17.3662130289
           2       16                 14.5162200478                 14.5162856100
           2       17                 -9.1961746418                 -9.1961748430
           2       18                  7.8010480239                  7.8010440885
           2       19                 33.0373403817                 33.0373354638
           2       20                 45.7905661606                 45.7905661778
           2       21                 52.0473049414                 52.0473047015
           2       22                 85.2998615710                 85.2998615936
           2       23                141.9710660772                141.9710661022

  Preparing densities etc. for the partition functions (integrals / Hartree potential).

  Preparations completed.
  max(cpu_time)          :      0.212 s.
  Wall clock time (cpu1) :      0.210 s.
------------------------------------------------------------
  After prepare_scf [GB]:   1045.00

  Initializing index lists of integration centers etc. from given atomic structure:
  Mapping all atomic coordinates to central unit cell.

  Initializing the k-points
  Using symmetry for reducing the k-points
  | k-points reduced from:      512 to      260
  | Number of k-points                             :       260
  The eigenvectors in the calculations are COMPLEX.
  | K-points in task   0:        10
  | K-points in task   1:        11
  | K-points in task   2:        11
  | K-points in task   3:        11
  | K-points in task   4:        11
  | K-points in task   5:        11
  | K-points in task   6:        11
  | K-points in task   7:        11
  | K-points in task   8:        11
  | K-points in task   9:        11
  | K-points in task  10:        11
  | K-points in task  11:        11
  | K-points in task  12:        11
  | K-points in task  13:        11
  | K-points in task  14:        11
  | K-points in task  15:        11
  | K-points in task  16:        11
  | K-points in task  17:        11
  | K-points in task  18:        11
  | K-points in task  19:        11
  | K-points in task  20:        11
  | K-points in task  21:        10
  | K-points in task  22:        10
  | K-points in task  23:        10
  | Number of basis functions in the Hamiltonian integrals :      8470
  | Number of basis functions in a single unit cell        :       236
  | Number of centers in hartree potential         :      1445
  | Number of centers in hartree multipole         :      1220
  | Number of centers in electron density summation:       885
  | Number of centers in basis integrals           :       965
  | Number of centers in integrals                 :       315
  | Number of centers in hamiltonian               :       907
  | Consuming        885 KiB for k_phase.
  | Number of super-cells (origin) [n_cells]                     :        1053
  | Number of super-cells (after PM_index) [n_cells]             :         218
  | Number of super-cells in hamiltonian [n_cells_in_hamiltonian]:         218
  | Size of matrix packed + index [n_hamiltonian_matrix_size] :     1925711
  After initialize_bc_dependent_lists [GB]:   1044.70

------------------------------------------------------------
          Begin self-consistency loop: Initialization.

          Date     :  20240711, Time     :  020312.813
------------------------------------------------------------

  Initializing relaxation algorithms.
  Finished initialization of distributed Hessian storage.
  | Global dimension:        27
  | BLACS block size:         2
  | Number of workers:       14

  Available memory per node after initialize_hartree_non_periodic_ewald [GB]:   1044.70
  | Estimated reciprocal-space cutoff momentum G_max:         3.46725808 bohr^-1 .
  | Reciprocal lattice points for long-range Hartree potential:     306
  Available memory per node after initialize_recip_hartree_potential [GB]:   1044.70
  Available memory per node after initialize_scalapack [GB]:   1044.70
  Available memory per node after aims_elsi_init_scf [GB]:   1044.70
  Available memory per node after initialize_fixed_grids [GB]:   1044.70
  Partitioning the integration grid into batches with parallel hashing+maxmin method.
  | Number of batches:     2432
  | Maximal batch size:     104
  | Minimal batch size:      55
  | Average batch size:      75.824
  | Standard deviation of batch sizes:      10.633

  Integration load balanced across    24 MPI tasks.
  Work distribution over tasks is as follows:
  Task     0 has       7700 integration points.
  Task     1 has       7705 integration points.
  Task     2 has       7701 integration points.
  Task     3 has       7703 integration points.
  Task     4 has       7649 integration points.
  Task     5 has       7708 integration points.
  Task     6 has       7697 integration points.
  Task     7 has       7692 integration points.
  Task     8 has       7706 integration points.
  Task     9 has       7690 integration points.
  Task    10 has       7683 integration points.
  Task    11 has       7639 integration points.
  Task    12 has       7696 integration points.
  Task    13 has       7651 integration points.
  Task    14 has       7678 integration points.
  Task    15 has       7673 integration points.
  Task    16 has       7637 integration points.
  Task    17 has       7698 integration points.
  Task    18 has       7638 integration points.
  Task    19 has       7673 integration points.
  Task    20 has       7694 integration points.
  Task    21 has       7704 integration points.
  Task    22 has       7688 integration points.
  Task    23 has       7701 integration points.
  Available memory per node after partition_grid [GB]:   1044.70
  Initializing partition tables, free-atom densities, potentials, etc. across the integration grid (initialize_grid_storage).
  | initialize_grid_storage: Actual outermost partition radius vs. multipole_radius_free
  | (-- VB: in principle, multipole_radius_free should be larger, hence this output)
  | Species        1: Confinement radius =              6.000000000000000 AA, multipole_radius_free =              6.009195547060584 AA.
  | Species        1: outer_partition_radius set to              6.009195547060584 AA .
  | Species        2: Confinement radius =              6.000000000000000 AA, multipole_radius_free =              6.064445521808699 AA.
  | Species        2: outer_partition_radius set to              6.064445521808699 AA .
  | The sparse table of interatomic distances needs       8143.06 kbyte instead of      7449.80 kbyte of memory.
  | Using the partition_type stratmann_smoother will reduce your memory usage.
  | Net number of integration points:   184404
  | of which are non-zero points    :   135184
  | Numerical average free-atom electrostatic potential    :    -18.64800494 eV
  Available memory per node after initialize_grid_storage_p1 [GB]:   1044.69
  Renormalizing the initial density to the exact electron count on the 3D integration grid.
  | Initial density: Formal number of electrons (from input files) :      76.0000000000
  | Integrated number of electrons on 3D grid     :      75.9999973283
  | Charge integration error                      :      -0.0000026717
  | Normalization factor for density and gradient :       1.0000000352
  Renormalizing the free-atom superposition density to the exact electron count on the 3D integration grid.
  | Formal number of electrons (from input files) :      76.0000000000
  | Integrated number of electrons on 3D grid     :      75.9999973283
  | Charge integration error                      :      -0.0000026717
  | Normalization factor for density and gradient :       1.0000000352
  Obtaining max. number of non-zero basis functions in each batch (get_n_compute_maxes).
  | Maximal number of non-zero basis functions:     2479 in task     0
  | Maximal number of non-zero basis functions:     2433 in task     1
  | Maximal number of non-zero basis functions:     2448 in task     2
  | Maximal number of non-zero basis functions:     2465 in task     3
  | Maximal number of non-zero basis functions:     2434 in task     4
  | Maximal number of non-zero basis functions:     2472 in task     5
  | Maximal number of non-zero basis functions:     2445 in task     6
  | Maximal number of non-zero basis functions:     2498 in task     7
  | Maximal number of non-zero basis functions:     2450 in task     8
  | Maximal number of non-zero basis functions:     2471 in task     9
  | Maximal number of non-zero basis functions:     2436 in task    10
  | Maximal number of non-zero basis functions:     2456 in task    11
  | Maximal number of non-zero basis functions:     2460 in task    12
  | Maximal number of non-zero basis functions:     2464 in task    13
  | Maximal number of non-zero basis functions:     2443 in task    14
  | Maximal number of non-zero basis functions:     2461 in task    15
  | Maximal number of non-zero basis functions:     2469 in task    16
  | Maximal number of non-zero basis functions:     2446 in task    17
  | Maximal number of non-zero basis functions:     2447 in task    18
  | Maximal number of non-zero basis functions:     2456 in task    19
  | Maximal number of non-zero basis functions:     2463 in task    20
  | Maximal number of non-zero basis functions:     2464 in task    21
  | Maximal number of non-zero basis functions:     2470 in task    22
  | Maximal number of non-zero basis functions:     2486 in task    23
  Available memory per node after get_n_compute_maxes_p1 [GB]:   1044.64
  Allocating        2.197 MB for KS_eigenvector_complex
  Available memory per node after allocate_matrices [GB]:   1044.59
  Available memory per node after init_comm_sparse_local_matrix_scalapack [GB]:   1044.59
  Integrating Hamiltonian matrix: batch-based integration.
  Time summed over all CPUs for integration: real work       94.958 s, elapsed       98.829 s
  Available memory per node after integrate hamiltonian matrix [GB]:   1043.72
  Integrating overlap matrix.
  Time summed over all CPUs for integration: real work       66.337 s, elapsed       68.965 s
  Available memory per node after integrate ovlp matrix [GB]:   1043.26
  Available memory per node after ASI_callbacks invoke [GB]:   1043.26
  Available memory per node after save_overlap_scalapack [GB]:   1043.26

  Updating Kohn-Sham eigenvalues and eigenvectors using ELSI and the (modified) LAPACK eigensolver.
  Singularity check in k-point 24, task 0 (analysis for other k-points/tasks may follow below):
  Overlap matrix is not singular
  | Lowest and highest eigenvalues :  0.7391E-04,  0.1432E+02
  Finished singularity check of overlap matrix
  | Time :     0.009 s
  Starting LAPACK eigensolver
  Finished Cholesky decomposition
  | Time :     0.002 s
  Finished transformation to standard eigenproblem
  | Time :     0.002 s
  Finished solving standard eigenproblem
  | Time :     0.010 s
  Finished back-transformation of eigenvectors
  | Time :     0.000 s

  Obtaining occupation numbers and electronic chemical potential using ELSI.
  | Note that, for insulating systems, the printed 'chemical potential' value is not uniquely defined.
  | It can be anywhere in the energy gap, as long as it correctly separates occupied and unoccupied states.
  | In systems with a gap, the physically relevant chemical potential is the VBM or HOMO.

  | Chemical potential (Fermi level):    -8.02378359 eV
  Available memory per node after advance_KS_solution [GB]:   1043.26
  Writing Kohn-Sham eigenvalues.
  K-point:       1 at    0.000000    0.000000    0.000000 (in units of recip. lattice)

  State    Occupation    Eigenvalue [Ha]    Eigenvalue [eV]
      1       2.00000        -179.560870        -4886.09989
      2       2.00000        -179.505166        -4884.58409
      3       2.00000         -19.758972         -537.66899
      4       2.00000         -19.697195         -535.98795
      5       2.00000         -19.071393         -518.95900
      6       2.00000         -19.071385         -518.95880
      7       2.00000         -18.918898         -514.80942
      8       2.00000         -18.918898         -514.80942
      9       2.00000         -16.396629         -446.17497
     10       2.00000         -16.388577         -445.95586
     11       2.00000         -16.388218         -445.94610
     12       2.00000         -16.330570         -444.37742
     13       2.00000         -16.330540         -444.37661
     14       2.00000         -16.330315         -444.37049
     15       2.00000          -2.483109          -67.56884
     16       2.00000          -2.303824          -62.69023
     17       2.00000          -1.878251          -51.10981
     18       2.00000          -1.551381          -42.21522
     19       2.00000          -1.547689          -42.11476
     20       2.00000          -1.455355          -39.60222
     21       2.00000          -1.440895          -39.20874
     22       2.00000          -1.437503          -39.11646
     23       2.00000          -1.164761          -31.69476
     24       2.00000          -1.083940          -29.49550
     25       2.00000          -1.027502          -27.95975
     26       2.00000          -0.936142          -25.47372
     27       2.00000          -0.743770          -20.23902
     28       2.00000          -0.712864          -19.39803
     29       2.00000          -0.704152          -19.16095
     30       2.00000          -0.613273          -16.68802
     31       2.00000          -0.573589          -15.60816
     32       2.00000          -0.572821          -15.58726
     33       2.00000          -0.564097          -15.34987
     34       2.00000          -0.497209          -13.52974
     35       2.00000          -0.496878          -13.52073
     36       2.00000          -0.488933          -13.30454
     37       2.00000          -0.485442          -13.20956
     38       2.00000          -0.297100           -8.08450
     39       0.00000          -0.282982           -7.70034
     40       0.00000          -0.254565           -6.92707
     41       0.00000          -0.199343           -5.42439
     42       0.00000          -0.181528           -4.93963
     43       0.00000          -0.176423           -4.80070
     44       0.00000          -0.171309           -4.66154
     45       0.00000          -0.104443           -2.84203
     46       0.00000          -0.099677           -2.71236
     47       0.00000          -0.088796           -2.41625
     48       0.00000          -0.073891           -2.01068
     49       0.00000           0.037277            1.01437
     50       0.00000           0.043873            1.19385
     51       0.00000           0.052122            1.41831
     52       0.00000           0.119091            3.24063
     53       0.00000           0.193248            5.25856
     54       0.00000           0.240445            6.54284
     55       0.00000           0.255371            6.94901
     56       0.00000           0.322201            8.76754
     57       0.00000           0.359944            9.79457
     58       0.00000           0.384861           10.47261
     59       0.00000           0.528426           14.37922
     60       0.00000           0.555243           15.10893
     61       0.00000           0.631720           17.18997

  What follows are estimated values for band gap, HOMO, LUMO, etc.
  | They are estimated on a discrete k-point grid and not necessarily exact.
  | For converged numbers, create a DOS and/or band structure plot on a denser k-grid.

  Highest occupied state (VBM) at     -8.08449591 eV (relative to internal zero)
  | Occupation number:      2.00000000
  | K-point:       1 at    0.000000    0.000000    0.000000 (in units of recip. lattice)

  Lowest unoccupied state (CBM) at    -7.92850696 eV (relative to internal zero)
  | Occupation number:      0.00000000
  | K-point:     202 at    0.500000    0.500000    0.000000 (in units of recip. lattice)

  ESTIMATED overall HOMO-LUMO gap:      0.15598896 eV between HOMO at k-point 1 and LUMO at k-point 202
  | This appears to be an indirect band gap.
  | Smallest direct gap :      0.21670346 eV for k_point 202 at    0.500000    0.500000    0.000000 (in units of recip. lattice)
  The gap value is rather small. This may be a metal or a small-gap semiconductor.
  Since we use a finite k-point grid, a DOS and/or band structure plot is required
  for an unambiguous assignment.
  Calculating total energy contributions from superposition of free atom densities.

  Total energy components:
  | Sum of eigenvalues            :       -1195.56974872 Ha      -32533.10812905 eV
  | XC energy correction          :        -113.14272004 Ha       -3078.77005843 eV
  | XC potential correction       :         149.53191547 Ha        4068.97044680 eV
  | Free-atom electrostatic energy:        -848.83768466 Ha      -23098.04861542 eV
  | Hartree energy correction     :           0.00000000 Ha           0.00000000 eV
  | Entropy correction            :          -0.00000000 Ha          -0.00000000 eV
  | ---------------------------
  | Total energy                  :       -2008.01823796 Ha      -54640.95635609 eV
  | Total energy, T -> 0          :       -2008.01823796 Ha      -54640.95635609 eV  <-- do not rely on this value for anything but (periodic) metals
  | Electronic free energy        :       -2008.01823796 Ha      -54640.95635609 eV

  Derived energy quantities:
  | Kinetic energy                :        2021.53869716 Ha       55008.86676994 eV
  | Electrostatic energy          :       -3916.41421507 Ha     -106571.05306760 eV
  | Energy correction for multipole
  | error in Hartree potential    :           0.00000000 Ha           0.00000000 eV
  | Sum of eigenvalues per atom                           :       -5422.18468817 eV
  | Total energy (T->0) per atom                          :       -9106.82605935 eV  <-- do not rely on this value for anything but (periodic) metals
  | Electronic free energy per atom                       :       -9106.82605935 eV
  Initialize hartree_potential_storage
  Max. number of atoms included in rho_multipole:            6

  End scf initialization - timings             :  max(cpu_time)    wall_clock(cpu1)
  | Time for scf. initialization                :        8.571 s           8.572 s
  | Boundary condition initialization           :        0.067 s           0.067 s
  | Relaxation initialization                   :        0.005 s           0.005 s
  | Integration                                 :        7.101 s           7.101 s
  | Solution of K.-S. eqns.                     :        0.391 s           0.391 s
  | Grid partitioning                           :        0.109 s           0.109 s
  | Preloading free-atom quantities on grid     :        0.896 s           0.896 s
  | Free-atom superposition energy              :        0.069 s           0.068 s
  | Total energy evaluation                     :        0.000 s           0.001 s

  Partial memory accounting:
  | Current value for overall tracked memory usage:
  |   Minimum:       38.984 MB (on task 21)
  |   Maximum:       39.204 MB (on task  1)
  |   Average:       39.167 MB
  | Peak value for overall tracked memory usage:
  |   Minimum:      101.796 MB (on task  1 after allocating wave)
  |   Maximum:      104.707 MB (on task  7 after allocating wave)
  |   Average:      102.918 MB
  | Largest tracked array allocation so far:
  |   Minimum:       45.162 MB (hamiltonian_shell on task  1)
  |   Maximum:       47.607 MB (hamiltonian_shell on task  7)
  |   Average:       46.134 MB
  Note:  These values currently only include a subset of arrays which are explicitly tracked.
  The "true" memory usage will be greater.
------------------------------------------------------------
  Available memory after initialize_scf [GB]:   1043.26
  Available memory after allocating mixing [GB]:   1043.26
  Evaluating new KS density using the density matrix
  Evaluating density matrix
  Time summed over all CPUs for getting density from density matrix: real work      334.652 s, elapsed      343.874 s
  Integration grid: deviation in total charge (<rho> - N_e) =   4.263256E-14

  Time for density update prior                :  max(cpu_time)    wall_clock(cpu1)
  | self-consistency iterative process          :       14.387 s          14.388 s
  Available memory before start of SCF loop [GB]:   1043.08

------------------------------------------------------------
          Begin self-consistency iteration #    1

  Date     :  20240711, Time     :  020335.773
------------------------------------------------------------
  Pulay mixing of updated and previous charge densities.
  Available memory per node after mixing [GB]:   1043.08
  Renormalizing the density to the exact electron count on the 3D integration grid.
  | Formal number of electrons (from input files) :      76.0000000000
  | Integrated number of electrons on 3D grid     :      76.0000000000
  | Charge integration error                      :      -0.0000000000
  | Normalization factor for density and gradient :       1.0000000000

  Evaluating partitioned Hartree potential by multipole expansion.
  | Original multipole sum: apparent total charge =  -0.300646E-13
  | Sum of charges compensated after spline to logarithmic grids =  -0.701006E-07
  | Analytical far-field extrapolation by fixed multipoles:
  | Hartree multipole sum: apparent total charge =  -0.298617E-13
  Summing up the Hartree potential.
  Time summed over all CPUs for potential: real work        0.225 s, elapsed        0.234 s
  | RMS charge density error from multipole expansion :   0.524651E-03
  | Average real-space part of the electrostatic potential :      0.09195248 eV

  Integrating Hamiltonian matrix: batch-based integration.
  Time summed over all CPUs for integration: real work      194.966 s, elapsed      203.551 s

  Updating Kohn-Sham eigenvalues and eigenvectors using ELSI and the (modified) LAPACK eigensolver.
  Starting LAPACK eigensolver
  Finished Cholesky decomposition
  | Time :     0.002 s
  Finished transformation to standard eigenproblem
  | Time :     0.003 s
  Finished solving standard eigenproblem
  | Time :     0.009 s
  Finished back-transformation of eigenvectors
  | Time :     0.001 s

  Obtaining occupation numbers and electronic chemical potential using ELSI.
  | Note that, for insulating systems, the printed 'chemical potential' value is not uniquely defined.
  | It can be anywhere in the energy gap, as long as it correctly separates occupied and unoccupied states.
  | In systems with a gap, the physically relevant chemical potential is the VBM or HOMO.

  | Chemical potential (Fermi level):    -7.55011114 eV
  Writing Kohn-Sham eigenvalues.
  K-point:       1 at    0.000000    0.000000    0.000000 (in units of recip. lattice)

  State    Occupation    Eigenvalue [Ha]    Eigenvalue [eV]
      1       2.00000        -180.841685        -4920.95263
      2       2.00000        -180.810832        -4920.11308
      3       2.00000         -20.101009         -546.97629
      4       2.00000         -20.081325         -546.44065
      5       2.00000         -19.389907         -527.62622
      6       2.00000         -19.389860         -527.62493
      7       2.00000         -19.246904         -523.73490
      8       2.00000         -19.246825         -523.73276
      9       2.00000         -16.601902         -451.76075
     10       2.00000         -16.601706         -451.75539
     11       2.00000         -16.601641         -451.75365
     12       2.00000         -16.585066         -451.30260
     13       2.00000         -16.577940         -451.10869
     14       2.00000         -16.577659         -451.10106
     15       2.00000          -2.553849          -69.49377
     16       2.00000          -2.442636          -66.46750
     17       2.00000          -1.902219          -51.76201
     18       2.00000          -1.577108          -42.91529
     19       2.00000          -1.570745          -42.74216
     20       2.00000          -1.536591          -41.81276
     21       2.00000          -1.525226          -41.50352
     22       2.00000          -1.522992          -41.44272
     23       2.00000          -1.198938          -32.62475
     24       2.00000          -1.128373          -30.70460
     25       2.00000          -1.074525          -29.23932
     26       2.00000          -0.973342          -26.48598
     27       2.00000          -0.736103          -20.03039
     28       2.00000          -0.699972          -19.04720
     29       2.00000          -0.696542          -18.95387
     30       2.00000          -0.609359          -16.58151
     31       2.00000          -0.562676          -15.31119
     32       2.00000          -0.562320          -15.30151
     33       2.00000          -0.553607          -15.06440
     34       2.00000          -0.491505          -13.37454
     35       2.00000          -0.489618          -13.32318
     36       2.00000          -0.479180          -13.03914
     37       2.00000          -0.478109          -13.01001
     38       2.00000          -0.283201           -7.70630
     39       0.00000          -0.272700           -7.42054
     40       0.00000          -0.229814           -6.25356
     41       0.00000          -0.196960           -5.35955
     42       0.00000          -0.179266           -4.87808
     43       0.00000          -0.178928           -4.86889
     44       0.00000          -0.168361           -4.58134
     45       0.00000          -0.086269           -2.34749
     46       0.00000          -0.071014           -1.93239
     47       0.00000          -0.054321           -1.47815
     48       0.00000          -0.034947           -0.95094
     49       0.00000           0.064574            1.75715
     50       0.00000           0.065291            1.77666
     51       0.00000           0.083767            2.27940
     52       0.00000           0.156896            4.26934
     53       0.00000           0.226264            6.15695
     54       0.00000           0.281200            7.65184
     55       0.00000           0.302691            8.23665
     56       0.00000           0.372018           10.12314
     57       0.00000           0.400936           10.91003
     58       0.00000           0.434392           11.82040
     59       0.00000           0.584024           15.89210
     60       0.00000           0.626359           17.04409
     61       0.00000           0.705262           19.19116

  What follows are estimated values for band gap, HOMO, LUMO, etc.
  | They are estimated on a discrete k-point grid and not necessarily exact.
  | For converged numbers, create a DOS and/or band structure plot on a denser k-grid.

  Highest occupied state (VBM) at     -7.59835264 eV (relative to internal zero)
  | Occupation number:      2.00000000
  | K-point:       2 at    0.000000    0.000000    0.125000 (in units of recip. lattice)

  Lowest unoccupied state (CBM) at    -7.49370649 eV (relative to internal zero)
  | Occupation number:      0.00000000
  | K-point:     202 at    0.500000    0.500000    0.000000 (in units of recip. lattice)

  ESTIMATED overall HOMO-LUMO gap:      0.10464615 eV between HOMO at k-point 2 and LUMO at k-point 202
  | This appears to be an indirect band gap.
  | Smallest direct gap :      0.21678364 eV for k_point 206 at    0.500000    0.500000    0.875000 (in units of recip. lattice)
  The gap value is rather small. This may be a metal or a small-gap semiconductor.
  Since we use a finite k-point grid, a DOS and/or band structure plot is required
  for an unambiguous assignment.

  Total energy components:
  | Sum of eigenvalues            :       -1208.73247372 Ha      -32891.28410005 eV
  | XC energy correction          :        -119.38553105 Ha       -3248.64558912 eV
  | XC potential correction       :         163.31861969 Ha        4444.12575630 eV
  | Free-atom electrostatic energy:        -848.83768466 Ha      -23098.04861542 eV
  | Hartree energy correction     :          -0.42326769 Ha         -11.51769983 eV
  | Entropy correction            :          -0.00000000 Ha          -0.00000000 eV
  | ---------------------------
  | Total energy                  :       -2014.06033743 Ha      -54805.37024811 eV
  | Total energy, T -> 0          :       -2014.06033743 Ha      -54805.37024811 eV  <-- do not rely on this value for anything but (periodic) metals
  | Electronic free energy        :       -2014.06033743 Ha      -54805.37024811 eV

  Derived energy quantities:
  | Kinetic energy                :        2022.18842522 Ha       55026.54677006 eV
  | Electrostatic energy          :       -3916.86323160 Ha     -106583.27142905 eV
  | Energy correction for multipole
  | error in Hartree potential    :          -0.00010731 Ha          -0.00292004 eV
  | Sum of eigenvalues per atom                           :       -5481.88068334 eV
  | Total energy (T->0) per atom                          :       -9134.22837468 eV  <-- do not rely on this value for anything but (periodic) metals
  | Electronic free energy per atom                       :       -9134.22837468 eV
  Evaluating new KS density using the density matrix
  Evaluating density matrix
  Time summed over all CPUs for getting density from density matrix: real work      335.020 s, elapsed      348.499 s
  Integration grid: deviation in total charge (<rho> - N_e) =   0.000000E+00

  Self-consistency convergence accuracy:
  | Change of charge density      :  0.8308E+00
  | Change of unmixed KS density  :  0.7199E+02
  | Change of sum of eigenvalues  : -0.3582E+03 eV
  | Change of total energy        : -0.1644E+03 eV


------------------------------------------------------------
  End self-consistency iteration #     1       :  max(cpu_time)    wall_clock(cpu1)
  | Time for this iteration                     :       23.666 s          23.667 s
  | Charge density update                       :       14.581 s          14.582 s
  | Density mixing                              :        0.000 s           0.001 s
  | Hartree multipole update                    :        0.003 s           0.002 s
  | Hartree multipole summation                 :        0.241 s           0.242 s
  | Integration                                 :        8.544 s           8.544 s
  | Solution of K.-S. eqns.                     :        0.295 s           0.295 s
  | Total energy evaluation                     :        0.000 s           0.001 s

  Partial memory accounting:
  | Current value for overall tracked memory usage:
  |   Minimum:       44.322 MB (on task 22)
  |   Maximum:       44.555 MB (on task  5)
  |   Average:       44.502 MB
  | Peak value for overall tracked memory usage:
  |   Minimum:      107.145 MB (on task  1 after allocating wave)
  |   Maximum:      110.047 MB (on task  7 after allocating wave)
  |   Average:      108.252 MB
  | Largest tracked array allocation so far:
  |   Minimum:       45.162 MB (hamiltonian_shell on task  1)
  |   Maximum:       47.607 MB (hamiltonian_shell on task  7)
  |   Average:       46.134 MB
  Note:  These values currently only include a subset of arrays which are explicitly tracked.
  The "true" memory usage will be greater.
------------------------------------------------------------

------------------------------------------------------------
          Begin self-consistency iteration #    2

  Date     :  20240711, Time     :  020359.440
------------------------------------------------------------
  Pulay mixing of updated and previous charge densities.
  Available memory per node after mixing [GB]:   1042.82
  Renormalizing the density to the exact electron count on the 3D integration grid.
  | Formal number of electrons (from input files) :      76.0000000000
  | Integrated number of electrons on 3D grid     :      76.0000000000
  | Charge integration error                      :       0.0000000000
  | Normalization factor for density and gradient :       1.0000000000

  Evaluating partitioned Hartree potential by multipole expansion.
  | Original multipole sum: apparent total charge =   0.151571E-12
  | Sum of charges compensated after spline to logarithmic grids =  -0.335627E-06
  | Analytical far-field extrapolation by fixed multipoles:
  | Hartree multipole sum: apparent total charge =   0.151805E-12
  Summing up the Hartree potential.
  Time summed over all CPUs for potential: real work        0.229 s, elapsed        0.238 s
  | RMS charge density error from multipole expansion :   0.145322E-02
  | Average real-space part of the electrostatic potential :      0.25224589 eV

  Integrating Hamiltonian matrix: batch-based integration.
  Time summed over all CPUs for integration: real work      195.334 s, elapsed      203.925 s

  Updating Kohn-Sham eigenvalues and eigenvectors using ELSI and the (modified) LAPACK eigensolver.
  Starting LAPACK eigensolver
  Finished Cholesky decomposition
  | Time :     0.001 s
  Finished transformation to standard eigenproblem
  | Time :     0.003 s
  Finished solving standard eigenproblem
  | Time :     0.009 s
  Finished back-transformation of eigenvectors
  | Time :     0.001 s

  Obtaining occupation numbers and electronic chemical potential using ELSI.
  | Note that, for insulating systems, the printed 'chemical potential' value is not uniquely defined.
  | It can be anywhere in the energy gap, as long as it correctly separates occupied and unoccupied states.
  | In systems with a gap, the physically relevant chemical potential is the VBM or HOMO.

  | Chemical potential (Fermi level):    -7.35316454 eV
  What follows are estimated values for band gap, HOMO, LUMO, etc.
  | They are estimated on a discrete k-point grid and not necessarily exact.
  | For converged numbers, create a DOS and/or band structure plot on a denser k-grid.

  Highest occupied state (VBM) at     -7.35438846 eV (relative to internal zero)
  | Occupation number:      1.13741827
  | K-point:      28 at    0.000000    0.500000    0.625000 (in units of recip. lattice)

  Lowest unoccupied state (CBM) at    -7.33198831 eV (relative to internal zero)
  | Occupation number:      0.00274651
  | K-point:     150 at    0.375000    0.375000    0.250000 (in units of recip. lattice)

  ESTIMATED overall HOMO-LUMO gap:      0.02240015 eV between HOMO at k-point 28 and LUMO at k-point 150
  | This appears to be an indirect band gap.
  | Smallest direct gap :      0.32989253 eV for k_point 28 at    0.000000    0.500000    0.625000 (in units of recip. lattice)
  However, this system has fractional occupation numbers. Since we use a finite k-point grid,
  this material is metallic within the approximate finite broadening function (occupation_type)
  applied to determine the occupation numbers.

  Checking to see if s.c.f. parameters should be adjusted.
  Adjusted the Pulay mixing parameter (charge_mix_param) for an expected low-gap system. New value:   0.020000 .
  Adjusted the occupation broadening width for an expected low-gap system. New value:      0.05000000 eV.

  Total energy components:
  | Sum of eigenvalues            :       -1207.97988100 Ha      -32870.80501003 eV
  | XC energy correction          :        -119.52728432 Ha       -3252.50289200 eV
  | XC potential correction       :         163.51022393 Ha        4449.33957314 eV
  | Free-atom electrostatic energy:        -848.83768466 Ha      -23098.04861542 eV
  | Hartree energy correction     :          -1.07219572 Ha         -29.17593009 eV
  | Entropy correction            :          -0.00002463 Ha          -0.00067021 eV
  | ---------------------------
  | Total energy                  :       -2013.90682177 Ha      -54801.19287440 eV
  | Total energy, T -> 0          :       -2013.90684640 Ha      -54801.19354461 eV  <-- do not rely on this value for anything but (periodic) metals
  | Electronic free energy        :       -2013.90687103 Ha      -54801.19421482 eV

  Derived energy quantities:
  | Kinetic energy                :        2023.53763505 Ha       55063.26063769 eV
  | Electrostatic energy          :       -3917.91717250 Ha     -106611.95062009 eV
  | Energy correction for multipole
  | error in Hartree potential    :          -0.00029330 Ha          -0.00798120 eV
  | Sum of eigenvalues per atom                           :       -5478.46750167 eV
  | Total energy (T->0) per atom                          :       -9133.53225744 eV  <-- do not rely on this value for anything but (periodic) metals
  | Electronic free energy per atom                       :       -9133.53236914 eV
  Evaluating new KS density using the density matrix
  Evaluating density matrix
  Time summed over all CPUs for getting density from density matrix: real work      335.485 s, elapsed      349.979 s
  Integration grid: deviation in total charge (<rho> - N_e) =   1.421085E-13

  Self-consistency convergence accuracy:
  | Change of charge density      :  0.7233E+00
  | Change of unmixed KS density  :  0.2203E+00
  | Change of sum of eigenvalues  :  0.2048E+02 eV
  | Change of total energy        :  0.4177E+01 eV


------------------------------------------------------------
  End self-consistency iteration #     2       :  max(cpu_time)    wall_clock(cpu1)
  | Time for this iteration                     :       23.751 s          23.753 s
  | Charge density update                       :       14.643 s          14.644 s
  | Density mixing                              :        0.001 s           0.001 s
  | Hartree multipole update                    :        0.003 s           0.003 s
  | Hartree multipole summation                 :        0.245 s           0.245 s
  | Integration                                 :        8.559 s           8.559 s
  | Solution of K.-S. eqns.                     :        0.300 s           0.300 s
  | Total energy evaluation                     :        0.000 s           0.001 s

  Partial memory accounting:
  | Current value for overall tracked memory usage:
  |   Minimum:       44.322 MB (on task 22)
  |   Maximum:       44.556 MB (on task  5)
  |   Average:       44.502 MB
  | Peak value for overall tracked memory usage:
  |   Minimum:      107.146 MB (on task  1 after allocating wave)
  |   Maximum:      110.048 MB (on task  7 after allocating wave)
  |   Average:      108.253 MB
  | Largest tracked array allocation so far:
  |   Minimum:       45.162 MB (hamiltonian_shell on task  1)
  |   Maximum:       47.607 MB (hamiltonian_shell on task  7)
  |   Average:       46.134 MB
  Note:  These values currently only include a subset of arrays which are explicitly tracked.
  The "true" memory usage will be greater.
------------------------------------------------------------

------------------------------------------------------------
          Begin self-consistency iteration #    3

  Date     :  20240711, Time     :  020423.193
------------------------------------------------------------
  Pulay mixing of updated and previous charge densities.
  Available memory per node after mixing [GB]:   1042.76
  Renormalizing the density to the exact electron count on the 3D integration grid.
  | Formal number of electrons (from input files) :      76.0000000000
  | Integrated number of electrons on 3D grid     :      76.0000000000
  | Charge integration error                      :      -0.0000000000
  | Normalization factor for density and gradient :       1.0000000000

  Evaluating partitioned Hartree potential by multipole expansion.
  | Original multipole sum: apparent total charge =   0.160869E-13
  | Sum of charges compensated after spline to logarithmic grids =  -0.528023E-06
  | Analytical far-field extrapolation by fixed multipoles:
  | Hartree multipole sum: apparent total charge =   0.165051E-13
  Summing up the Hartree potential.
  Time summed over all CPUs for potential: real work        0.233 s, elapsed        0.242 s
  | RMS charge density error from multipole expansion :   0.210042E-02
  | Average real-space part of the electrostatic potential :      0.35929794 eV

  Integrating Hamiltonian matrix: batch-based integration.
  Time summed over all CPUs for integration: real work      195.172 s, elapsed      203.209 s

  Updating Kohn-Sham eigenvalues and eigenvectors using ELSI and the (modified) LAPACK eigensolver.
  Starting LAPACK eigensolver
  Finished Cholesky decomposition
  | Time :     0.001 s
  Finished transformation to standard eigenproblem
  | Time :     0.003 s
  Finished solving standard eigenproblem
  | Time :     0.009 s
  Finished back-transformation of eigenvectors
  | Time :     0.001 s

  Obtaining occupation numbers and electronic chemical potential using ELSI.
  | Note that, for insulating systems, the printed 'chemical potential' value is not uniquely defined.
  | It can be anywhere in the energy gap, as long as it correctly separates occupied and unoccupied states.
  | In systems with a gap, the physically relevant chemical potential is the VBM or HOMO.

  | Chemical potential (Fermi level):    -7.69800314 eV
  What follows are estimated values for band gap, HOMO, LUMO, etc.
  | They are estimated on a discrete k-point grid and not necessarily exact.
  | For converged numbers, create a DOS and/or band structure plot on a denser k-grid.

  Highest occupied state (VBM) at     -7.70517686 eV (relative to internal zero)
  | Occupation number:      1.16078948
  | K-point:     133 at    0.375000    0.000000    0.375000 (in units of recip. lattice)

  Lowest unoccupied state (CBM) at    -7.69789651 eV (relative to internal zero)
  | Occupation number:      0.99759352
  | K-point:      27 at    0.000000    0.500000    0.500000 (in units of recip. lattice)

  ESTIMATED overall HOMO-LUMO gap:      0.00728035 eV between HOMO at k-point 133 and LUMO at k-point 27
  | This appears to be an indirect band gap.
  | Smallest direct gap :      0.26714162 eV for k_point 134 at    0.375000    0.000000    0.500000 (in units of recip. lattice)
  However, this system has fractional occupation numbers. Since we use a finite k-point grid,
  this material is metallic within the approximate finite broadening function (occupation_type)
  applied to determine the occupation numbers.

  Total energy components:
  | Sum of eigenvalues            :       -1207.59694832 Ha      -32860.38488185 eV
  | XC energy correction          :        -119.61987236 Ha       -3255.02234068 eV
  | XC potential correction       :         163.63446432 Ha        4452.72032607 eV
  | Free-atom electrostatic energy:        -848.83768466 Ha      -23098.04861542 eV
  | Hartree energy correction     :          -1.44858263 Ha         -39.41793882 eV
[...]
   Pulay + GGA                   :  0.464022E+01 -0.464022E+01 -0.208843E-06
   ----------------------------------------------------------------
   Total forces(   5)            : -0.127631E-01  0.127638E-01 -0.362985E-08
  atom #    6
   Hellmann-Feynman              :  0.463177E+01 -0.463177E+01  0.180862E-06
   Ionic forces                  :  0.000000E+00  0.000000E+00  0.000000E+00
   Multipole                     :  0.212085E-01 -0.212084E-01  0.159219E-07
   Hartree pot. SCF incomplete   : -0.195550E-06  0.195564E-06 -0.120670E-10
   Pulay + GGA                   : -0.464022E+01  0.464022E+01 -0.194802E-06
   ----------------------------------------------------------------
   Total forces(   6)            :  0.127631E-01 -0.127638E-01  0.196938E-08


  Analytical stress tensor components [eV]         xx                  yy                  zz                  xy                  xz                  yz
  -----------------------------------------------------------------------------------------------------------------------------------------------------------
    Nuclear Hellmann-Feynman      :    -0.1175745164E+03   -0.1175744899E+03   -0.1632062568E+03    0.5887365237E+00    0.7863667693E-08   -0.1047656388E-07
    Multipole Hellmann-Feynman    :    -0.1349733272E+03   -0.1349733415E+03   -0.2099800270E+03    0.9044287290E+00    0.1949286566E-07   -0.2707952306E-07
    On-site Multipole corrections :    -0.1433480839E+00   -0.1433480844E+00   -0.1428876426E+00   -0.6209720436E-05    0.2320182190E-11    0.4872382600E-10
    Strain deriv. of the orbitals :     0.2521932289E+03    0.2521932150E+03    0.3734486342E+03   -0.1197517395E+01   -0.2639851258E-07    0.3611181107E-07
  -----------------------------------------------------------------------------------------------------------------------------------------------------------
  Sum of all contributions        :    -0.4979627849E+00   -0.4979644740E+00    0.1194628016E+00    0.2956416483E+00    0.9603409531E-09   -0.1395552048E-08

  +-------------------------------------------------------------------+
  |              Analytical stress tensor - Symmetrized               |
  |                  Cartesian components [eV/A**3]                   |
  +-------------------------------------------------------------------+
  |                x                y                z                |
  |                                                                   |
  |  x        -0.00785884       0.00466581       0.00000000           |
  |  y         0.00466581      -0.00785887      -0.00000000           |
  |  z         0.00000000      -0.00000000       0.00188536           |
  |                                                                   |
  |  Pressure:       0.00461078   [eV/A**3]                           |
  |                                                                   |
  +-------------------------------------------------------------------+

 * Warning: Stress tensor is anisotropic. Be aware that pressure is an isotropic quantity.


  Self-consistency convergence accuracy:
  | Change of charge density      :  0.2995E-07
  | Change of unmixed KS density  :  0.3490E-07
  | Change of sum of eigenvalues  :  0.2713E-05 eV
  | Change of total energy        :  0.7425E-10 eV
  | Change of forces              :  0.1567E-05 eV/A

  Writing Kohn-Sham eigenvalues.
  K-point:       1 at    0.000000    0.000000    0.000000 (in units of recip. lattice)

  State    Occupation    Eigenvalue [Ha]    Eigenvalue [eV]
      1       2.00000        -180.904836        -4922.67105
      2       2.00000        -180.904150        -4922.65237
      3       2.00000         -20.207255         -549.86739
      4       2.00000         -20.206587         -549.84920
      5       2.00000         -19.081501         -519.23405
      6       2.00000         -19.081363         -519.23032
      7       2.00000         -19.080960         -519.21934
      8       2.00000         -19.080821         -519.21554
      9       2.00000         -16.704561         -454.55422
     10       2.00000         -16.704556         -454.55410
     11       2.00000         -16.704550         -454.55393
     12       2.00000         -16.703914         -454.53663
     13       2.00000         -16.703884         -454.53582
     14       2.00000         -16.703877         -454.53563
     15       2.00000          -2.533506          -68.94021
     16       2.00000          -2.532690          -68.91799
     17       2.00000          -1.620739          -44.10256
     18       2.00000          -1.620210          -44.08817
     19       2.00000          -1.614422          -43.93067
     20       2.00000          -1.614372          -43.92930
     21       2.00000          -1.612906          -43.88941
     22       2.00000          -1.611582          -43.85337
     23       2.00000          -1.058664          -28.80771
     24       2.00000          -1.017736          -27.69400
     25       2.00000          -0.991374          -26.97665
     26       2.00000          -0.990496          -26.95277
     27       2.00000          -0.564431          -15.35894
     28       2.00000          -0.549682          -14.95760
     29       2.00000          -0.530464          -14.43465
     30       2.00000          -0.496009          -13.49710
     31       2.00000          -0.493949          -13.44105
     32       2.00000          -0.446972          -12.16274
     33       2.00000          -0.446092          -12.13878
     34       2.00000          -0.426533          -11.60654
     35       2.00000          -0.379096          -10.31573
     36       2.00000          -0.368529          -10.02819
     37       2.00000          -0.368117          -10.01697
     38       2.00000          -0.351473           -9.56408
     39       0.00000          -0.270403           -7.35804
     40       0.00000          -0.258028           -7.02130
     41       0.00000          -0.250834           -6.82553
     42       0.00000          -0.248143           -6.75231
     43       0.00000          -0.247737           -6.74126
     44       0.00000          -0.181616           -4.94202
     45       0.00000          -0.173034           -4.70849
     46       0.00000          -0.096507           -2.62609
     47       0.00000          -0.095696           -2.60403
     48       0.00000          -0.060364           -1.64258
     49       0.00000          -0.040438           -1.10038
     50       0.00000           0.114055            3.10361
     51       0.00000           0.114942            3.12773
     52       0.00000           0.211368            5.75163
     53       0.00000           0.260225            7.08108
     54       0.00000           0.314827            8.56689
     55       0.00000           0.360581            9.81191
     56       0.00000           0.409305           11.13776
     57       0.00000           0.412236           11.21751
     58       0.00000           0.467509           12.72158
     59       0.00000           0.476798           12.97434
     60       0.00000           0.570640           15.52791
     61       0.00000           0.619021           16.84441

  What follows are estimated values for band gap, HOMO, LUMO, etc.
  | They are estimated on a discrete k-point grid and not necessarily exact.
  | For converged numbers, create a DOS and/or band structure plot on a denser k-grid.

  Highest occupied state (VBM) at     -9.56407815 eV (relative to internal zero)
  | Occupation number:      2.00000000
  | K-point:       1 at    0.000000    0.000000    0.000000 (in units of recip. lattice)

  Lowest unoccupied state (CBM) at    -7.35803808 eV (relative to internal zero)
  | Occupation number:      0.00000000
  | K-point:       1 at    0.000000    0.000000    0.000000 (in units of recip. lattice)

  ESTIMATED overall HOMO-LUMO gap:      2.20604007 eV between HOMO at k-point 1 and LUMO at k-point 1
  | This appears to be a direct band gap.
  The gap value is above 0.2 eV. Unless you are using a very sparse k-point grid,
  this system is most likely an insulator or a semiconductor.

  | Chemical Potential                          :    -8.48025377 eV
  | Note that, for insulating systems, the printed 'chemical potential' value is not uniquely defined.
  | It can be anywhere in the energy gap, as long as it correctly separates occupied and unoccupied states.
  | In systems with a gap, the physically relevant chemical potential is the VBM or HOMO.

  Self-consistency cycle converged.


------------------------------------------------------------
  End self-consistency iteration #    11       :  max(cpu_time)    wall_clock(cpu1)
  | Time for this iteration                     :      229.891 s         229.899 s
  | Charge density & force component update     :      216.556 s         216.563 s
  | Density mixing                              :        0.003 s           0.002 s
  | Hartree multipole update                    :        0.003 s           0.003 s
  | Hartree multipole summation                 :        1.973 s           1.973 s
  | Hartree pot. SCF incomplete forces          :        2.740 s           2.741 s
  | Integration                                 :        8.323 s           8.324 s
  | Solution of K.-S. eqns.                     :        0.293 s           0.292 s
  | Total energy evaluation                     :        0.000 s           0.001 s

  Partial memory accounting:
  | Current value for overall tracked memory usage:
  |   Minimum:       45.885 MB (on task 22)
  |   Maximum:       46.357 MB (on task  6)
  |   Average:       46.261 MB
  | Peak value for overall tracked memory usage:
  |   Minimum:      128.329 MB (on task  1 after allocating d_wave)
  |   Maximum:      131.794 MB (on task  7 after allocating d_wave)
  |   Average:      129.873 MB
  | Largest tracked array allocation so far:
  |   Minimum:       45.162 MB (hamiltonian_shell on task  1)
  |   Maximum:       47.607 MB (hamiltonian_shell on task  7)
  |   Average:       46.262 MB
  Note:  These values currently only include a subset of arrays which are explicitly tracked.
  The "true" memory usage will be greater.
------------------------------------------------------------
  Removing unitary transformations (pure translations, rotations) from forces on atoms.
  Atomic forces before filtering:
  | Net force on center of mass :  -0.105676E-06 -0.543684E-07  0.106980E-06 eV/A
  Atomic forces after filtering:
  | Net force on center of mass :  -0.278760E-17 -0.278760E-17 -0.212677E-22 eV/A

  Energy and forces in a compact form:
  | Total energy uncorrected      :         -0.548232850052689E+05 eV
  | Total energy corrected        :         -0.548232850052689E+05 eV  <-- do not rely on this value for anything but (periodic) metals
  | Electronic free energy        :         -0.548232850052689E+05 eV
  Total atomic forces (unitary forces cleaned) [eV/Ang]:
  |    1          0.531390248877644E-08          0.791213653470480E-07         -0.838451734280917E-07
  |    2         -0.772611271195081E-07         -0.114302858698711E-06          0.155119112921017E-06
  |    3          0.181077990366710E-02          0.181215243745797E-02         -0.164664070084769E-07
  |    4         -0.181074915868534E-02         -0.181210947083819E-02         -0.174871860355421E-07
  |    5         -0.127630954917045E-01          0.127638247259109E-01         -0.214597922956690E-07
  |    6          0.127631366939473E-01         -0.127638325110373E-01         -0.158605541532374E-07

  ------------------------------------ 
  Start decomposition of the XC Energy 
  ------------------------------------ 
  X and C from original XC functional choice 
  Hartree-Fock Energy :          0.000000000 Ha              0.000000000 eV
  X Energy            :       -116.449008350 Ha          -3168.738740851 eV
  C Energy            :         -2.991726661 Ha            -81.409024500 eV
  XC Energy w/o HF    :       -119.440735011 Ha          -3250.147765352 eV
  Total XC Energy     :       -119.440735011 Ha          -3250.147765352 eV
  ------------------------------------ 
  LDA X and C from self-consistent density 
  X Energy LDA        :       -107.316656254 Ha          -2920.234796572 eV
  C Energy LDA        :         -5.873208850 Ha           -159.818144279 eV
  ------------------------------------ 
  End decomposition of the XC Energy 
  ------------------------------------ 

------------------------------------------------------------
  Relaxation / MD: End force evaluation.       :  max(cpu_time)    wall_clock(cpu1)
  | Time for this force evaluation              :      482.458 s         482.486 s

------------------------------------------------------------
  Geometry optimization: Attempting to predict improved coordinates.

  +-------------------------------------------------------------------+
  | Generalized derivatives on lattice vectors [eV/A]                 |
  +-------------------------------------------------------------------+
  |lattice_vector      -0.10794105       0.06420535       0.00000000  |
  |lattice_vector       0.06420534      -0.10794142      -0.00000000  |
  |lattice_vector       0.00000000      -0.00000000       0.04020735  |
  +-------------------------------------------------------------------+
  | Forces on lattice vectors cleaned from atomic contributions [eV/A]|
  +-------------------------------------------------------------------+
  |lattice_vector       0.10794105      -0.06420535      -0.00000000  |
  |lattice_vector      -0.06420534       0.10794142       0.00000000  |
  |lattice_vector      -0.00000000       0.00000000      -0.04020735  |
  +-------------------------------------------------------------------+
  Removing unitary transformations (pure translations, rotations) from forces on atoms.
  Atomic forces before filtering:
  | Net force on center of mass :  -0.278760E-17 -0.278760E-17 -0.212677E-22 eV/A
  Atomic forces after filtering:
  | Net force on center of mass :  -0.278760E-17  0.000000E+00 -0.531692E-23 eV/A
  Net remaining forces (excluding translations, rotations) in present geometry:
  || Forces on atoms   || =   0.127638E-01 eV/A.
  || Forces on lattice || =   0.107941E+00 eV/A^3.
  Maximum force component is  0.107941E+00 eV/A.
  Present geometry is not yet converged.

  Relaxation step number     14: Predicting new coordinates.

  Advancing geometry using trust radius method.
  | True / expected gain:  1.22E-03 eV / -1.06E-03 eV =   -1.1480
  | Harmonic / expected gain: -1.07E-03 eV / -1.06E-03 eV =    1.0030
  | Using harmonic gain <DX|-(F0+F1)/2> instead of DE to judge step.
  **
  ** The relaxation algorithm did not achieve its requested precision target.
  ** Specifically, the relaxation trajectory moved uphill from its lowest known energy so far
  ** by more than:              0.00300 eV.
  ** This likely means that the relaxation trajectory went uphill in a series of multiple small steps.
  ** In general, this should not happen - we therefore stop here to warn the user at this stage.
  ** Please check (e.g., using the get_relaxation_info.pl utility) whether the relaxation indeed
  ** climbed uphill in multiple steps.
  **
  ** Possible remedies include:
  **
  ** (1) Use denser integration grids to see if this is just related to grid quality.
  **     For instance, if you are using 'light' settings, continue with intermediate or tight settings.
  **     Better integration grids will improve the numerical precision of the computed forces.
  **
  ** (2) Resetting the Hessian matrix built during the BFGS algorithm may sometimes help.
  **     Just restart the relaxation in a new directory, using the file geometry.in.next_step
  **     as the new geometry.in file. (Use a new directory to avoid overwriting output from the present run.)
  **     The 'hessian.aims' file should be copied over or you may set a different initial
  **     Hessian matrix altogether, using the 'init_hess' keyword.
  **
  ** (3) You can adjust the maximum allowed increase using the aggregated_energy_tolerance keyword.
  **     However, be very careful if you do this. The energy should usually not go up significantly
  **     during relaxation. If it does, then something else could be wrong and you need to find and
  **     address the underlying cause. Otherwise you might simply be getting wrong results.
  **
  ** (4) If you indeed observe multiple successive uphill energy steps that were accepted by
  **     the relaxation algorithm, please let us know. This should not happen and actually,
  **     we are not aware under which circumstances it might happen. (Would be good to know.)
  **
  ** Sorry about this inconvenience.
  **

------------------------------------------------------------
          Leaving FHI-aims.
          Date     :  20240711, Time     :  041814.111

          Computational steps:
          | Number of self-consistency cycles          :          214
          | Number of SCF (re)initializations          :           14
          | Number of relaxation steps                 :           14

          Detailed time accounting                     :  max(cpu_time)    wall_clock(cpu1)
          | Total time                                  :     8101.286 s        8101.619 s
          | Preparation time                            :        0.212 s           0.210 s
          | Boundary condition initalization            :        0.766 s           0.732 s
          | Grid partitioning                           :        1.524 s           1.511 s
          | Preloading free-atom quantities on grid     :       12.071 s          12.072 s
          | Free-atom superposition energy              :        1.044 s           1.044 s
          | Total time for integrations                 :     1814.393 s        1814.453 s
          | Total time for solution of K.-S. equations  :       63.277 s          63.283 s
          | Total time for EV reorthonormalization      :        0.571 s           0.520 s
          | Total time for density & force components   :     6024.299 s        6024.526 s
          | Total time for mixing                       :        0.378 s           0.376 s
          | Total time for Hartree multipole update     :        0.591 s           0.590 s
          | Total time for Hartree multipole sum        :      104.015 s         104.017 s
          | Total time for total energy evaluation      :        0.091 s           0.088 s
          | Total time NSC force correction             :       77.315 s          77.318 s
          | Total time for scaled ZORA corrections      :        0.000 s           0.000 s

          Partial memory accounting:
          | Residual value for overall tracked memory usage across tasks:  1110.316727 MB (should be 0.000000 MB)
          |
          | Largest tracked array allocation:
          |   Minimum:       45.162 MB (hamiltonian_shell on task  1)
          |   Maximum:       47.607 MB (hamiltonian_shell on task  7)
          |   Average:       46.262 MB
          |
          | Because the residual tracked memory usage was not zero, the peak value for overall
          | tracked memory usage was not output, as it is probably incorrect.  This is likely due
          | to a missing aims_deallocate statement in the source code, which should be otherwise
          | harmless.
          |
          Note:  These values currently only include a subset of arrays which are explicitly tracked.
          The "true" memory usage will be greater.

------------------------------------------------------------

  *  This FHI-aims run ended, but the code exited with an error and did not run to completion.
  *  There is likely a more detailed error message printed just above the timing information.
  *  If so, please refer to that error message to learn more.

 *** trusted_descent: Too many uphill relaxation steps, overall above aggregated_energy_tolerance.
 
