------------------------------------------------------------
          Invoking FHI-aims ...

          When using FHI-aims, please cite the following reference:

            Volker Blum, Ralf Gehrke, Felix Hanke, Paula Havu,
            Ville Havu, Xinguo Ren, Karsten Reuter, and Matthias Scheffler,
            'Ab Initio Molecular Simulations with Numeric Atom-Centered Orbitals',
            Computer Physics Communications 180, 2175-2196 (2009)

          In addition, many other developments in FHI-aims are likely important for
          your particular application. If so, please cite them. A partial list of references
          is written at the end of this file. Thank you for giving credit to the authors
          of these developments.

          For general information about FHI-aims please find us at

            https://fhi-aims.org

          Online tutorials can be found at

            https://fhi-aims-club.gitlab.io/tutorials/tutorials-overview/

          For any questions about FHI-aims, please visit our slack channel at

            https://fhi-aims.slack.com

          and our main development and support site at

            https://aims-git.rz-berlin.mpg.de .

          The latter site, in particular, has a wiki to collect information, as well
          as an issue tracker to log discussions, suggest improvements, and report issues
          or bugs. https://aims-git.rz-berlin.mpg.de is also the main development site
          of the project and all new and updated code versions can be obtained there.
          Please send an email to aims-coordinators@fhi-berlin.mpg.de and we will add
          you to these sites. They are for you and everyone is welcome there.

------------------------------------------------------------



  Date     :  20250311, Time     :  175507.211
  Time zero on CPU 1             :   0.410537000000000E+00  s.
  Internal wall clock time zero  :           510947707.211  s.

  FHI-aims created a unique identifier for this run for later identification
  aims_uuid : 71ACE91B-9200-4B11-A5AF-B58FD9FB8D39

  Build configuration of the current instance of FHI-aims
  -------------------------------------------------------
  FHI-aims version      : 240605
  Commit number         : b001b2e18
  CMake host system     : Linux-6.5.0-41-generic
  CMake version         : 3.22.1
  Fortran compiler      : /opt/intel/oneapi/mpi/2021.12/bin/mpiifort (IntelLLVM) version 2024.1.0
  Fortran compiler flags: -fc=ifx -O3 -ip -fp-model precise
  C compiler            : /opt/intel/oneapi/mpi/2021.12/bin/mpiicc (IntelLLVM) version 2024.1.0
  C compiler flags      : -cc=icx -O3 -ip -fp-model precise -std=gnu99
  C++ compiler          : /opt/intel/oneapi/mpi/2021.12/bin/mpiicpc (IntelLLVM) version 2024.1.0
  C++ compiler flags    : -cxx=icpx -O3 -ip -fp-model precise -std=c++11
  HIP compiler          :
  HIP compiler flags    :
  HIP GPU arch          :
  Using MPI
  Using ScaLAPACK
  Using LibXC
  Using i-PI
  Using RLSY
  Linking against: /opt/intel/oneapi/mkl/2024.1/lib/intel64/libmkl_intel_lp64.so
                   /opt/intel/oneapi/mkl/2024.1/lib/intel64/libmkl_sequential.so
                   /opt/intel/oneapi/mkl/2024.1/lib/intel64/libmkl_core.so
                   /opt/intel/oneapi/mkl/2024.1/lib/intel64/libmkl_blacs_intelmpi_lp64.so
                   /opt/intel/oneapi/mkl/2024.1/lib/intel64/libmkl_scalapack_lp64.so
                   /opt/intel/oneapi/mkl/2024.1/lib/intel64/libmkl_core.so

  Using       32 parallel tasks.
  Task        0 on host RSL-arvutus reporting.
  Task        1 on host RSL-arvutus reporting.
  Task        2 on host RSL-arvutus reporting.
  Task        3 on host RSL-arvutus reporting.
  Task        4 on host RSL-arvutus reporting.
  Task        5 on host RSL-arvutus reporting.
  Task        6 on host RSL-arvutus reporting.
  Task        7 on host RSL-arvutus reporting.
  Task        8 on host RSL-arvutus reporting.
  Task        9 on host RSL-arvutus reporting.
  Task       10 on host RSL-arvutus reporting.
  Task       11 on host RSL-arvutus reporting.
  Task       12 on host RSL-arvutus reporting.
  Task       13 on host RSL-arvutus reporting.
  Task       14 on host RSL-arvutus reporting.
  Task       15 on host RSL-arvutus reporting.
  Task       16 on host RSL-arvutus reporting.
  Task       17 on host RSL-arvutus reporting.
  Task       18 on host RSL-arvutus reporting.
  Task       19 on host RSL-arvutus reporting.
  Task       20 on host RSL-arvutus reporting.
  Task       21 on host RSL-arvutus reporting.
  Task       22 on host RSL-arvutus reporting.
  Task       23 on host RSL-arvutus reporting.
  Task       24 on host RSL-arvutus reporting.
  Task       25 on host RSL-arvutus reporting.
  Task       26 on host RSL-arvutus reporting.
  Task       27 on host RSL-arvutus reporting.
  Task       28 on host RSL-arvutus reporting.
  Task       29 on host RSL-arvutus reporting.
  Task       30 on host RSL-arvutus reporting.
  Task       31 on host RSL-arvutus reporting.

  Memory overcommitment is allowed on your operating system.

  Obtaining array dimensions for all initial allocations:
  
  -----------------------------------------------------------------------
  Parsing control.in (first pass over file, find array dimensions only).
  The contents of control.in will be repeated verbatim below
  unless switched off by setting 'verbatim_writeout .false.' .
  in the first line of control.in .
  -----------------------------------------------------------------------
  
  xc                 pbe
  relativistic       zora scalar 1.0e-12
  charge             1.0
  KS_method          serial
  ################################################################################
  #
  #  FHI-aims code project
  #  Volker Blum, Fritz Haber Institute Berlin, 2009
  #
  #  Suggested "tight" defaults for H atom (to be pasted into control.in file)
  #
  ################################################################################
    species        H
  #     global species definitions
      nucleus             1
      mass                1.00794
  #
      l_hartree           6
  #
      cut_pot             4.0  2.0  1.0
      basis_dep_cutoff    1e-4
  #
      radial_base         24 7.0
      radial_multiplier   2
      angular_grids       specified
        division   0.1930   50
        division   0.3175  110
        division   0.4293  194
        division   0.5066  302
        division   0.5626  434
  #      division   0.5922  590
  #      division   0.6227  974
  #      division   0.6868 1202
  #      outer_grid  770
        outer_grid  434
  ################################################################################
  #
  #  Definition of "minimal" basis
  #
  ################################################################################
  #     valence basis states
      valence      1  s   1.
  #     ion occupancy
      ion_occ      1  s   0.5
  ################################################################################
  #
  #  Suggested additional basis functions. For production calculations,
  #  uncomment them one after another (the most important basis functions are
  #  listed first).
  #
  #  Basis constructed for dimers: 0.5 A, 0.7 A, 1.0 A, 1.5 A, 2.5 A
  #
  ################################################################################
  #  "First tier" - improvements: -1014.90 meV to -62.69 meV
       hydro 2 s 2.1
       hydro 2 p 3.5
  #  "Second tier" - improvements: -12.89 meV to -1.83 meV
       hydro 1 s 0.85
       hydro 2 p 3.7
       hydro 2 s 1.2
       hydro 3 d 7
  #  "Third tier" - improvements: -0.25 meV to -0.12 meV
  #     hydro 4 f 11.2
  #     hydro 3 p 4.8
  #     hydro 4 d 9
  #     hydro 3 s 3.2
  ################################################################################
  #
  # For methods that use the localized form of the "resolution of identity" for
  # the two-electron Coulomb operator (RI_method LVL), particularly Hartree-Fock and
  # hybrid density functional calculations, the highest accuracy can be obtained by
  # uncommenting the line beginning with "for_aux"  below, thus adding an extra g radial
  # function to the construction of the product basis set for the expansion.
  # See Ref. New J. Phys. 17, 093020 (2015) for more information, particularly Figs. 1 and 6.
  #
  ################################################################################
  #
  # for_aux hydro 5 g 6.0
  ################################################################################
  #
  #  FHI-aims code project
  #  Volker Blum, Fritz Haber Institute Berlin, 2009
  #
  #  Suggested "tight" defaults for O atom (to be pasted into control.in file)
  #
  ################################################################################
    species        O
  #     global species definitions
      nucleus             8
      mass                15.9994
  #
      l_hartree           6
  #
      cut_pot             4.0  2.0  1.0
      basis_dep_cutoff    1e-4
  #
      radial_base         36 7.0
      radial_multiplier   2
       angular_grids specified
        division   0.1817   50
        division   0.3417  110
        division   0.4949  194
        division   0.6251  302
        division   0.8014  434
  #      division   0.8507  590
  #      division   0.8762  770
  #      division   0.9023  974
  #      division   1.2339 1202
  #      outer_grid 974
        outer_grid  434
  ################################################################################
  #
  #  Definition of "minimal" basis
  #
  ################################################################################
  #     valence basis states
      valence      2  s   2.
      valence      2  p   4.
  #     ion occupancy
      ion_occ      2  s   1.
      ion_occ      2  p   3.
  ################################################################################
  #
  #  Suggested additional basis functions. For production calculations,
  #  uncomment them one after another (the most important basis functions are
  #  listed first).
  #
  #  Constructed for dimers: 1.0 A, 1.208 A, 1.5 A, 2.0 A, 3.0 A
  #
  ################################################################################
  #  "First tier" - improvements: -699.05 meV to -159.38 meV
       hydro 2 p 1.8
       hydro 3 d 7.6
       hydro 3 s 6.4
  #  "Second tier" - improvements: -49.91 meV to -5.39 meV
       hydro 4 f 11.6
       hydro 3 p 6.2
       hydro 3 d 5.6
       hydro 5 g 17.6
       hydro 1 s 0.75
  #  "Third tier" - improvements: -2.83 meV to -0.50 meV
  #     ionic 2 p auto
  #     hydro 4 f 10.8
  #     hydro 4 d 4.7
  #     hydro 2 s 6.8
  #  "Fourth tier" - improvements: -0.40 meV to -0.12 meV
  #     hydro 3 p 5
  #     hydro 3 s 3.3
  #     hydro 5 g 15.6
  #     hydro 4 f 17.6
  #     hydro 4 d 14
  # Further basis functions - -0.08 meV and below
  #     hydro 3 s 2.1
  #     hydro 4 d 11.6
  #     hydro 3 p 16
  #     hydro 2 s 17.2
  ################################################################################
  #
  # For methods that use the localized form of the "resolution of identity" for
  # the two-electron Coulomb operator (RI_method LVL), particularly Hartree-Fock and
  # hybrid density functional calculations, the highest accuracy can be obtained by
  # uncommenting the line beginning with "for_aux"  below, thus adding an extra g radial
  # function to the construction of the product basis set for the expansion.
  # See Ref. New J. Phys. 17, 093020 (2015) for more information, particularly Figs. 1 and 6.
  #
  ################################################################################
  #
  # for_aux hydro 5 g 6.0
  ################################################################################
  #
  #  FHI-aims code project
  #  Volker Blum, Fritz Haber Institute Berlin, 2009
  #
  #  Suggested "tight" defaults for C atom (to be pasted into control.in file)
  #
  ################################################################################
    species        C
  #     global species definitions
      nucleus             6
      mass                12.0107
  #
      l_hartree           6
  #
      cut_pot             4.0  2.0  1.0
      basis_dep_cutoff    1e-4
  #
      radial_base         34 7.0
      radial_multiplier   2
      angular_grids specified
        division   0.2187   50
        division   0.4416  110
        division   0.6335  194
        division   0.7727  302
        division   0.8772  434
  #      division   0.9334  590
  #      division   0.9924  770
  #      division   1.0230  974
  #      division   1.5020 1202
  #     outer_grid  974
        outer_grid  434
  ################################################################################
  #
  #  Definition of "minimal" basis
  #
  ################################################################################
  #     valence basis states
      valence      2  s   2.
      valence      2  p   2.
  #     ion occupancy
      ion_occ      2  s   1.
      ion_occ      2  p   1.
  ################################################################################
  #
  #  Suggested additional basis functions. For production calculations,
  #  uncomment them one after another (the most important basis functions are
  #  listed first).
  #
  #  Constructed for dimers: 1.0 A, 1.25 A, 1.5 A, 2.0 A, 3.0 A
  #
  ################################################################################
  #  "First tier" - improvements: -1214.57 meV to -155.61 meV
       hydro 2 p 1.7
       hydro 3 d 6
       hydro 2 s 4.9
  #  "Second tier" - improvements: -67.75 meV to -5.23 meV
       hydro 4 f 9.8
       hydro 3 p 5.2
       hydro 3 s 4.3
       hydro 5 g 14.4
       hydro 3 d 6.2
  #  "Third tier" - improvements: -2.43 meV to -0.60 meV
  #     hydro 2 p 5.6
  #     hydro 2 s 1.4
  #     hydro 3 d 4.9
  #     hydro 4 f 11.2
  #  "Fourth tier" - improvements: -0.39 meV to -0.18 meV
  #     hydro 2 p 2.1
  #     hydro 5 g 16.4
  #     hydro 4 d 13.2
  #     hydro 3 s 13.6
  #     hydro 4 f 17.6
  #  Further basis functions - improvements: -0.08 meV and below
  #     hydro 3 s 2
  #     hydro 3 p 6
  #     hydro 4 d 20
  ################################################################################
  #
  # For methods that use the localized form of the "resolution of identity" for
  # the two-electron Coulomb operator (RI_method LVL), particularly Hartree-Fock and
  # hybrid density functional calculations, the highest accuracy can be obtained by
  # uncommenting the line beginning with "for_aux"  below, thus adding an extra g radial
  # function to the construction of the product basis set for the expansion.
  # See Ref. New J. Phys. 17, 093020 (2015) for more information, particularly Figs. 1 and 6.
  #
  ################################################################################
  #
  # for_aux hydro 5 g 6.0
  ################################################################################
  #
  #  FHI-aims code project
  #  Volker Blum, Fritz Haber Institute Berlin, 2009
  #
  #  Suggested "tight" defaults for F atom (to be pasted into control.in file)
  #
  ################################################################################
    species        F
  #     global species definitions
      nucleus             9
      mass                18.9984032
  #
      l_hartree           6
  #
      cut_pot             4.0  2.0  1.0
      basis_dep_cutoff    1e-4
  #
      radial_base         37 7.0
      radial_multiplier   2
      angular_grids specified
        division   0.4014  110
        division   0.5291  194
        division   0.6019  302
        division   0.6814  434
  #      division   0.7989  590
  #      division   0.8965  770
  #      division   1.3427  974
  #      outer_grid   974
        outer_grid  434
  ################################################################################
  #
  #  Definition of "minimal" basis
  #
  ################################################################################
  #     valence basis states
      valence      2  s   2.
      valence      2  p   5.
  #     ion occupancy
      ion_occ      2  s   1.
      ion_occ      2  p   4.
  ################################################################################
  #
  #  Suggested additional basis functions. For production calculations,
  #  uncomment them one after another (the most important basis functions are
  #  listed first).
  #
  #  Constructed for dimers: 1.2 A, 1.418 A, 1.75 A, 2.25 A, 3.25 A
  #
  ################################################################################
  #  "First tier" - improvements: -149.44 meV to -45.88 meV
       hydro 2 p 1.7
       hydro 3 d 7.4
       hydro 3 s 6.8
  #  "Second tier" - improvements: -12.96 meV to -1.56 meV
       hydro 4 f 11.2
       ionic 2 p auto
       hydro 1 s 0.75
       hydro 4 d 8.8
       hydro 5 g 16.8
  #  "Third tier" - improvements: -0.58 meV to -0.05 meV
  #     hydro 3 p 6.2
  #     hydro 3 s 3.2
  #     hydro 4 f 9.6
  #     hydro 3 s 19.6
  #     hydro 4 d 8.6
  #     hydro 5 g 14.4
  # Further basis functions: -0.05 meV and below
  #     hydro 3 p 4.2
  ################################################################################
  #
  # For methods that use the localized form of the "resolution of identity" for
  # the two-electron Coulomb operator (RI_method LVL), particularly Hartree-Fock and
  # hybrid density functional calculations, the highest accuracy can be obtained by
  # uncommenting the line beginning with "for_aux"  below, thus adding an extra g radial
  # function to the construction of the product basis set for the expansion.
  # See Ref. New J. Phys. 17, 093020 (2015) for more information, particularly Figs. 1 and 6.
  #
  ################################################################################
  #
  # for_aux hydro 5 g 6.0
  
  -----------------------------------------------------------------------
  Completed first pass over input file control.in .
  -----------------------------------------------------------------------
  
  
  -----------------------------------------------------------------------
  Parsing geometry.in (first pass over file, find array dimensions only).
  The contents of geometry.in will be repeated verbatim below
  unless switched off by setting 'verbatim_writeout .false.' .
  in the first line of geometry.in .
  -----------------------------------------------------------------------
  
  #
  # This is the geometry file that corresponds to the current relaxation step.
  # If you do not want this file to be written, set the "write_restart_geometry" flag to .false.
  #  aims_uuid : C88F6054-7F16-44AD-A59F-9AC0EC3E9577
  #
  atom       0.60190007     -0.00002556     -0.00001049 F
  atom      -0.60558209      0.00005563      0.00000141 C
  atom      -1.19815154      0.24652322     -0.91440848 H
  atom      -1.19816643     -0.24635329      0.91441755 H
  #
  # What follows is the current estimated Hessian matrix constructed by the BFGS algorithm.
  # This is NOT the true Hessian matrix of the system.
  # If you do not want this information here, switch it off using the "hessian_to_restart_geometry" keyword.
  #
  trust_radius             0.0206499112
  hessian_file
  
  -----------------------------------------------------------------------
  Completed first pass over input file geometry.in .
  -----------------------------------------------------------------------
  

  Basic array size parameters:
  | Number of species                 :        4
  | Number of atoms                   :        4
  | Max. basis fn. angular momentum   :        4
  | Max. atomic/ionic basis occupied n:        2
  | Max. number of basis fn. types    :        3
  | Max. radial fns per species/type  :        8
  | Max. logarithmic grid size        :     1310
  | Max. radial integration grid size :       75
  | Max. angular integration grid size:      434
  | Max. angular grid division number :        8
  | Radial grid for Hartree potential :     1310
  | Number of spin channels           :        1

------------------------------------------------------------
          Reading file control.in.
------------------------------------------------------------
  XC: Using PBE gradient-corrected functionals.
  Scalar relativistic treatment of kinetic energy: ZORA.
  Threshold value for ZORA:   0.100000E-11
  Charged system requested: Charge =   0.100000E+01.
  Kohn-Sham eigenvalues and eigenfunctions calculated by LAPACK via ELSI.
 
  Reading configuration options for species H                   .
  | Found nuclear charge :   1.0000
  | Found atomic mass :    1.00794000000000      amu
  | Found l_max for Hartree potential  :   6
  | Found cutoff potl. onset [A], width [A], scale factor :    4.00000    2.00000    1.00000
  | Threshold for basis-dependent cutoff potential is   0.100000E-03
  | Found data for basic radial integration grid :    24 points, outermost radius =    7.000 A
  | Found multiplier for basic radial grid :   2
  | Found angular grid specification: user-specified.
  | Specified grid contains     6 separate shells.
  | Check grid settings after all constraints further below.
  | Found free-atom valence shell :  1 s   1.000
  | Found free-ion valence shell :  1 s   0.500
  | Found hydrogenic basis function :  2 s   2.100
  | Found hydrogenic basis function :  2 p   3.500
  | Found hydrogenic basis function :  1 s   0.850
  | Found hydrogenic basis function :  2 p   3.700
  | Found hydrogenic basis function :  2 s   1.200
  | Found hydrogenic basis function :  3 d   7.000
 | Encountered keyword species, ending the description of species H                   .
  Species H                   : Missing cutoff potential type.
  Defaulting to exp(1/x)/(1-x)^2 type cutoff potential.
  Species H : No 'logarithmic' tag. Using default grid for free atom:
  | Default logarithmic grid data [bohr] : 0.1000E-03 0.1000E+03 0.1012E+01
  Species H : On-site basis accuracy parameter (for Gram-Schmidt orthonormalisation) not specified.
  Using default value basis_acc =  0.1000000E-03.
  Species H                   : Using default innermost maximum threshold i_radial=  2 for radial functions.
  Species H                   : Default cutoff onset for free atom density etc. : 0.40000000E+01 AA.
  Species H                   : Basic radial grid will be enhanced according to radial_multiplier =   2, to contain    49 grid points.
 
  Reading configuration options for species O                   .
  | Found nuclear charge :   8.0000
  | Found atomic mass :    15.9994000000000      amu
  | Found l_max for Hartree potential  :   6
  | Found cutoff potl. onset [A], width [A], scale factor :    4.00000    2.00000    1.00000
  | Threshold for basis-dependent cutoff potential is   0.100000E-03
  | Found data for basic radial integration grid :    36 points, outermost radius =    7.000 A
  | Found multiplier for basic radial grid :   2
  | Found angular grid specification: user-specified.
  | Specified grid contains     6 separate shells.
  | Check grid settings after all constraints further below.
  | Found free-atom valence shell :  2 s   2.000
  | Found free-atom valence shell :  2 p   4.000
  | Found free-ion valence shell :  2 s   1.000
  | Found free-ion valence shell :  2 p   3.000
  | Found hydrogenic basis function :  2 p   1.800
  | Found hydrogenic basis function :  3 d   7.600
  | Found hydrogenic basis function :  3 s   6.400
  | Found hydrogenic basis function :  4 f  11.600
  | Found hydrogenic basis function :  3 p   6.200
  | Found hydrogenic basis function :  3 d   5.600
  | Found hydrogenic basis function :  5 g  17.600
  | Found hydrogenic basis function :  1 s   0.750
 | Encountered keyword species, ending the description of species O                   .
  Species O                   : Missing cutoff potential type.
  Defaulting to exp(1/x)/(1-x)^2 type cutoff potential.
  Species O : No 'logarithmic' tag. Using default grid for free atom:
  | Default logarithmic grid data [bohr] : 0.1000E-03 0.1000E+03 0.1012E+01
  Species O : On-site basis accuracy parameter (for Gram-Schmidt orthonormalisation) not specified.
  Using default value basis_acc =  0.1000000E-03.
  Species O                   : Using default innermost maximum threshold i_radial=  2 for radial functions.
  Species O                   : Default cutoff onset for free atom density etc. : 0.40000000E+01 AA.
  Species O                   : Basic radial grid will be enhanced according to radial_multiplier =   2, to contain    73 grid points.
 
  Reading configuration options for species C                   .
  | Found nuclear charge :   6.0000
  | Found atomic mass :    12.0107000000000      amu
  | Found l_max for Hartree potential  :   6
  | Found cutoff potl. onset [A], width [A], scale factor :    4.00000    2.00000    1.00000
  | Threshold for basis-dependent cutoff potential is   0.100000E-03
  | Found data for basic radial integration grid :    34 points, outermost radius =    7.000 A
  | Found multiplier for basic radial grid :   2
  | Found angular grid specification: user-specified.
  | Specified grid contains     6 separate shells.
  | Check grid settings after all constraints further below.
  | Found free-atom valence shell :  2 s   2.000
  | Found free-atom valence shell :  2 p   2.000
  | Found free-ion valence shell :  2 s   1.000
  | Found free-ion valence shell :  2 p   1.000
  | Found hydrogenic basis function :  2 p   1.700
  | Found hydrogenic basis function :  3 d   6.000
  | Found hydrogenic basis function :  2 s   4.900
  | Found hydrogenic basis function :  4 f   9.800
  | Found hydrogenic basis function :  3 p   5.200
  | Found hydrogenic basis function :  3 s   4.300
  | Found hydrogenic basis function :  5 g  14.400
  | Found hydrogenic basis function :  3 d   6.200
 | Encountered keyword species, ending the description of species C                   .
  Species C                   : Missing cutoff potential type.
  Defaulting to exp(1/x)/(1-x)^2 type cutoff potential.
  Species C : No 'logarithmic' tag. Using default grid for free atom:
  | Default logarithmic grid data [bohr] : 0.1000E-03 0.1000E+03 0.1012E+01
  Species C : On-site basis accuracy parameter (for Gram-Schmidt orthonormalisation) not specified.
  Using default value basis_acc =  0.1000000E-03.
  Species C                   : Using default innermost maximum threshold i_radial=  2 for radial functions.
  Species C                   : Default cutoff onset for free atom density etc. : 0.40000000E+01 AA.
  Species C                   : Basic radial grid will be enhanced according to radial_multiplier =   2, to contain    69 grid points.
 
  Reading configuration options for species F                   .
  | Found nuclear charge :   9.0000
  | Found atomic mass :    18.9984032000000      amu
  | Found l_max for Hartree potential  :   6
  | Found cutoff potl. onset [A], width [A], scale factor :    4.00000    2.00000    1.00000
  | Threshold for basis-dependent cutoff potential is   0.100000E-03
  | Found data for basic radial integration grid :    37 points, outermost radius =    7.000 A
  | Found multiplier for basic radial grid :   2
  | Found angular grid specification: user-specified.
  | Specified grid contains     5 separate shells.
  | Check grid settings after all constraints further below.
  | Found free-atom valence shell :  2 s   2.000
  | Found free-atom valence shell :  2 p   5.000
  | Found free-ion valence shell :  2 s   1.000
  | Found free-ion valence shell :  2 p   4.000
  | Found hydrogenic basis function :  2 p   1.700
  | Found hydrogenic basis function :  3 d   7.400
  | Found hydrogenic basis function :  3 s   6.800
  | Found hydrogenic basis function :  4 f  11.200
  | Found ionic basis function :  2 p , default cutoff radius.
  | Found hydrogenic basis function :  1 s   0.750
  | Found hydrogenic basis function :  4 d   8.800
  | Found hydrogenic basis function :  5 g  16.800
  Species F                   : Missing cutoff potential type.
  Defaulting to exp(1/x)/(1-x)^2 type cutoff potential.
  Species F : No 'logarithmic' tag. Using default grid for free atom:
  | Default logarithmic grid data [bohr] : 0.1000E-03 0.1000E+03 0.1012E+01
  | Will include ionic basis functions of  2.0-fold positive F                    ion.
  Species F : On-site basis accuracy parameter (for Gram-Schmidt orthonormalisation) not specified.
  Using default value basis_acc =  0.1000000E-03.
  Species F                   : Using default innermost maximum threshold i_radial=  2 for radial functions.
  Species F                   : Default cutoff onset for free atom density etc. : 0.40000000E+01 AA.
  Species F                   : Basic radial grid will be enhanced according to radial_multiplier =   2, to contain    75 grid points.
 
  Finished reading input file 'control.in'.
 
------------------------------------------------------------


------------------------------------------------------------
          Reading geometry description geometry.in.
------------------------------------------------------------
  Found keyword 'hessian_file', indicating that this is the continuation of a structure optimization.
  However, the control.in file does not request the geometry to be optimized.
  Ignoring the request for a file 'hessian.aims' to be present.
  | The smallest distance between any two atoms is         1.11715275 AA.
  | The first atom of this pair is atom number                      2 .
  | The second atom of this pair is atom number                     3 .
  Input structure read successfully.
  The structure contains        4 atoms,  and a total of         16.000 electrons.

  Input geometry:
  | No unit cell requested.
  | Atomic structure:
  |       Atom                x [A]            y [A]            z [A]
  |    1: Species F             0.60190007       -0.00002556       -0.00001049
  |    2: Species C            -0.60558209        0.00005563        0.00000141
  |    3: Species H            -1.19815154        0.24652322       -0.91440848
  |    4: Species H            -1.19816643       -0.24635329        0.91441755

  Slab Identifier: This is not a periodic structure.
 
  Finished reading input file 'geometry.in'.
 

 
  Consistency checks for stacksize environment parameter are next.
 
  | Maximum stacksize for task 0: unlimited
  | Maximum stacksize for task 1: unlimited
  | Maximum stacksize for task 2: unlimited
  | Maximum stacksize for task 3: unlimited
  | Maximum stacksize for task 4: unlimited
  | Maximum stacksize for task 5: unlimited
  | Maximum stacksize for task 6: unlimited
  | Maximum stacksize for task 7: unlimited
  | Maximum stacksize for task 8: unlimited
  | Maximum stacksize for task 9: unlimited
  | Maximum stacksize for task 10: unlimited
  | Maximum stacksize for task 11: unlimited
  | Maximum stacksize for task 12: unlimited
  | Maximum stacksize for task 13: unlimited
  | Maximum stacksize for task 14: unlimited
  | Maximum stacksize for task 15: unlimited
  | Maximum stacksize for task 16: unlimited
  | Maximum stacksize for task 17: unlimited
  | Maximum stacksize for task 18: unlimited
  | Maximum stacksize for task 19: unlimited
  | Maximum stacksize for task 20: unlimited
  | Maximum stacksize for task 21: unlimited
  | Maximum stacksize for task 22: unlimited
  | Maximum stacksize for task 23: unlimited
  | Maximum stacksize for task 24: unlimited
  | Maximum stacksize for task 25: unlimited
  | Maximum stacksize for task 26: unlimited
  | Maximum stacksize for task 27: unlimited
  | Maximum stacksize for task 28: unlimited
  | Maximum stacksize for task 29: unlimited
  | Maximum stacksize for task 30: unlimited
  | Maximum stacksize for task 31: unlimited
  | Current stacksize for task 0: unlimited
  | Current stacksize for task 1: unlimited
  | Current stacksize for task 2: unlimited
  | Current stacksize for task 3: unlimited
  | Current stacksize for task 4: unlimited
  | Current stacksize for task 5: unlimited
  | Current stacksize for task 6: unlimited
  | Current stacksize for task 7: unlimited
  | Current stacksize for task 8: unlimited
  | Current stacksize for task 9: unlimited
  | Current stacksize for task 10: unlimited
  | Current stacksize for task 11: unlimited
  | Current stacksize for task 12: unlimited
  | Current stacksize for task 13: unlimited
  | Current stacksize for task 14: unlimited
  | Current stacksize for task 15: unlimited
  | Current stacksize for task 16: unlimited
  | Current stacksize for task 17: unlimited
  | Current stacksize for task 18: unlimited
  | Current stacksize for task 19: unlimited
  | Current stacksize for task 20: unlimited
  | Current stacksize for task 21: unlimited
  | Current stacksize for task 22: unlimited
  | Current stacksize for task 23: unlimited
  | Current stacksize for task 24: unlimited
  | Current stacksize for task 25: unlimited
  | Current stacksize for task 26: unlimited
  | Current stacksize for task 27: unlimited
  | Current stacksize for task 28: unlimited
  | Current stacksize for task 29: unlimited
  | Current stacksize for task 30: unlimited
  | Current stacksize for task 31: unlimited
 
  Consistency checks for the contents of control.in are next.
 
  MPI_IN_PLACE appears to work with this MPI implementation.
  | Keeping use_mpi_in_place .true. (see manual).
  Target number of points in a grid batch is not set. Defaulting to  100
  Method for grid partitioning is not set. Defaulting to parallel hash+maxmin partitioning.
  Batch size limit is not set. Defaulting to    200
  By default, will store active basis functions for each batch.
  If in need of memory, prune_basis_once .false. can be used to disable this option.
  communication_type for Hartree potential was not specified.
  Defaulting to calc_hartree .
  Defaulting to Pulay charge density mixer.
  Pulay mixer: Number of relevant iterations not set.
  Defaulting to    8 iterations.
  Pulay mixer: Number of initial linear mixing iterations not set.
  Defaulting to    0 iterations.
  Work space size for distributed Hartree potential not set.
  Defaulting to   0.200000E+03 MB.
  Mixing parameter for charge density mixing has not been set.
  Using default: charge_mix_param =     0.0500.
  The mixing parameter will be adjusted in iteration number     2 of each s.c.f. cycle (i.e., each geometry step).
  Algorithm-dependent basis array size parameters:
  | n_max_pulay                         :        8
  Maximum number of self-consistency iterations not provided.
  Presetting  1000 iterations.
  Presetting      1001 iterations before the initial mixing cycle
  is restarted anyway using the sc_init_iter criterion / keyword.
  Presetting a factor      1.000 between actual scf density residual
  and density convergence criterion sc_accuracy_rho below which sc_init_iter
  takes no effect.
 * No s.c.f. convergence criteria (sc_accuracy_*) were provided in control.in.
 * The run will proceed with a reasonable default guess, but please check whether.
 * the s.c.f. cycles seem to take too much or too little time.
  Calculation of forces was not defined in control.in. No forces will be calculated.
  Geometry relaxation not requested: no relaxation will be performed.
 * Notice: The s.c.f. convergence criterion sc_accuracy_rho was not provided.
 * We used to stop in this case, and ask the user to provide reasonable
 * scf convergence criteria. However, this led some users to employ criteria
 * that led to extremely long run times, e.g., for simple relaxation.
 * We now preset a default value for sc_accuracy_rho if it is not set.
 * You may still wish to check if this setting is too tight or too loose for your needs.
 * Based on n_atoms and forces and force-correction status, FHI-aims chose sc_accuracy_rho =  0.800000E-05 .
  No accuracy limit for integral partition fn. given. Defaulting to  0.1000E-14.
  No threshold value for u(r) in integrations given. Defaulting to  0.1000E-05.
  No occupation type (smearing scheme) given. Defaulting to Gaussian broadening, width =  0.1000E-01 eV.
  The width will be adjusted in iteration number     2 of each s.c.f. cycle (i.e., each geometry step).
  No accuracy for occupation numbers given. Defaulting to  0.1000E-12.
  No threshold value for occupation numbers given. Defaulting to  0.0000E+00.
  No accuracy for fermi level given. Defaulting to  0.1000E-19.
  Maximum # of iterations to find E_F not set. Defaulting to  200.
  Will not use alltoall communication since running on < 1024 CPUs.
  Threshold for basis singularities not set.
  Default threshold for basis singularities:  0.1000E-04
  partition_type (choice of integration weights) for integrals was not specified.
  | Using a version of the partition function of Stratmann and coworkers ('stratmann_sparse').
  | At each grid point, the set of atoms used to build the partition table is smoothly restricted to
  | only those atoms whose free-atom density would be non-zero at that grid point.
  Partitioning for Hartree potential was not defined. Using partition_type for integrals.
  | Adjusted default value of keyword multip_moments_threshold to:       0.10000000E-11
  | This value may affect high angular momentum components of the Hartree potential in periodic systems.
  Spin handling was not defined in control.in. Defaulting to unpolarized case.
  No q(lm)/r^(l+1) cutoff set for long-range Hartree potential.
  | Using default value of  0.100000E-09 .
  | Verify using the multipole_threshold keyword.
  Defaulting to new monopole extrapolation.
  Density update method: automatic selection selected.
  Charge integration errors on the 3D integration grid will be compensated
  by explicit normalization and distribution of residual charges.
  Use the "compensate_multipole_errors" flag to change this behaviour.
  Set 'collect_eigenvectors' to be '.true.' for all serial calculations. This is mandatory.
  Set 'collect_eigenvectors' to be '.true.' for use_density_matrix .false.
  Set 'collect_eigenvectors' to be '.true.' for KS_method lapack_fast and serial.
  Found potential conflicts with setting 'use_local_index' for this calculation. Will not set it.
 
  Consistency checks for the contents of geometry.in are next.
 
 * Warning: Initial charge and total charge of the system are inconsistent.
 * Selected charge in control.in:     1.0000* Sum of initial charges in geometry.in:     0.0000
  Number of empty states per atom not set in control.in - providing a guess from actual geometry.
  | Total number of empty states used during s.c.f. cycle:        9
  If you use a very high smearing, use empty_states (per atom!) in control.in to increase this value.

  Structure-dependent array size parameters: 
  | Maximum number of distinct radial functions  :       40
  | Maximum number of basis functions            :      108
  | Number of Kohn-Sham states (occupied + empty):       17
------------------------------------------------------------
  After read_input_data [GB]:   1032.25

  Performing system and environment tests:
  *** Environment variable OMP_NUM_THREADS is not set
  *** For performance reasons you might want to set it to 1
  | Checking for ScaLAPACK...
  | Testing pdtran()...
  | All pdtran() tests passed.
  After prepare_system [GB]:   1032.10

------------------------------------------------------------
          Preparing all fixed parts of the calculation.
------------------------------------------------------------
  Determining machine precision:
    2.225073858507201E-308
  Setting up grids for atomic and cluster calculations.

  Creating wave function, potential, and density for free atoms.
  Runtime choices for atomic solver:
  | atomic solver xc        : PBE
  | compute density gradient: 1
  | compute kinetic density : F

  Species: H

  List of occupied orbitals and eigenvalues:
    n    l              occ      energy [Ha]    energy [eV]
    1    0           1.0000        -0.238386        -6.4868


  Species: O

  List of occupied orbitals and eigenvalues:
    n    l              occ      energy [Ha]    energy [eV]
    1    0           2.0000       -18.927378      -515.0401
    2    0           2.0000        -0.880539       -23.9607
    2    1           4.0000        -0.331811        -9.0290


  Species: C

  List of occupied orbitals and eigenvalues:
    n    l              occ      energy [Ha]    energy [eV]
    1    0           2.0000       -10.049212      -273.4530
    2    0           2.0000        -0.504761       -13.7352
    2    1           2.0000        -0.193631        -5.2690


  Species: F

  List of occupied orbitals and eigenvalues:
    n    l              occ      energy [Ha]    energy [eV]
    1    0           2.0000       -24.399755      -663.9511
    2    0           2.0000        -1.098813       -29.9002
    2    1           5.0000        -0.408322       -11.1110


  Adding cutoff potential to free-atom effective potential.
  Creating fixed part of basis set: Ionic, confined, hydrogenic.
 
  H                    hydrogenic:
 
  List of hydrogenic basis orbitals: 
    n    l      effective z      eigenvalue [eV]  inner max. [A]     outer max. [A]     outer radius [A]   
    2    0         2.100000       -14.9965           0.193243           1.317208           5.373006
    2    1         3.500000       -41.6672           0.602369           0.602369           4.056063
    1    0         0.850000        -9.8292           0.624871           0.624871           5.373006
    2    1         3.700000       -46.5653           0.573622           0.573622           3.910002
    2    0         1.200000        -4.5995           0.334980           2.228188           5.505995
    3    2         7.000000       -74.0753           0.680699           0.680699           3.769201
 
 
  O                    hydrogenic:
 
  List of hydrogenic basis orbitals: 
    n    l      effective z      eigenvalue [eV]  inner max. [A]     outer max. [A]     outer radius [A]   
    2    1         1.800000       -11.0118           1.178562           1.178562           5.432602
    3    2         7.600000       -87.3182           0.624125           0.624125           3.541477
    3    0         6.400000       -61.9209           0.061167           1.081902           4.306578
    4    3        11.600000      -114.4238           0.731631           0.731631           3.585037
    3    1         6.200000       -58.1113           0.255680           1.030270           4.306578
    3    2         5.600000       -47.4081           0.847233           0.847233           4.413171
    5    4        17.600000      -168.5799           0.749740           0.749740           3.372465
    1    0         0.750000        -7.6499           0.705284           0.705284           5.366593
 
 
  C                    hydrogenic:
 
  List of hydrogenic basis orbitals: 
    n    l      effective z      eigenvalue [eV]  inner max. [A]     outer max. [A]     outer radius [A]   
    2    1         1.700000        -9.8152           1.245706           1.245706           5.401630
    3    2         6.000000       -54.4226           0.792453           0.792453           4.178599
    2    0         4.900000       -81.6681           0.082559           0.562749           3.353238
    4    3         9.800000       -81.6681           0.863254           0.863254           4.028125
    3    1         5.200000       -40.8774           0.305389           1.215618           4.898362
    3    0         4.300000       -27.9508           0.091041           1.610311           5.401630
    5    4        14.400000      -112.8510           0.917666           0.917666           3.883070
    3    2         6.200000       -58.1113           0.763917           0.763917           4.077671
 
 
  F                    ion:

  List of free ionic orbitals and eigenvalues:
    n    l      energy [Ha]    energy [eV]
    1    0       -26.097677      -710.1539
    2    0        -2.490996       -67.7834
    2    1        -1.790314       -48.7169


  List of ionic basis orbitals and eigenvalues:
    n    l      energy [Ha]    energy [eV]    outer radius [A]
    2    1        -1.790310       -48.7168       3.346402

 
  F                    hydrogenic:
 
  List of hydrogenic basis orbitals: 
    n    l      effective z      eigenvalue [eV]  inner max. [A]     outer max. [A]     outer radius [A]   
    2    1         1.700000        -9.8152           1.243167           1.243167           5.456923
    3    2         7.400000       -82.7830           0.642437           0.642437           3.645380
    3    0         6.800000       -69.9029           0.057798           1.022307           4.119412
    4    3        11.200000      -106.6685           0.753096           0.753096           3.645380
    1    0         0.750000        -7.6499           0.708442           0.708442           5.390618
    4    2         8.800000       -65.8514           0.408685           1.273937           4.598524
    5    4        16.800000      -153.6028           0.790838           0.790838           3.471409
 
  Creating atomic-like basis functions for current effective potential.

  Species H                   :

  List of atomic basis orbitals and eigenvalues:
    n    l      energy [Ha]    energy [eV]    outer radius [A]
    1    0        -0.238386        -6.4868       5.373006


  Species O                   :

  List of atomic basis orbitals and eigenvalues:
    n    l      energy [Ha]    energy [eV]    outer radius [A]
    1    0       -18.927378      -515.0401       1.415765
    2    0        -0.880539       -23.9607       5.048385
    2    1        -0.331811        -9.0290       5.301386


  Species C                   :

  List of atomic basis orbitals and eigenvalues:
    n    l      energy [Ha]    energy [eV]    outer radius [A]
    1    0       -10.049212      -273.4530       1.934409
    2    0        -0.504761       -13.7352       5.271162
    2    1        -0.193631        -5.2690       5.401630


  Species F                   :

  List of atomic basis orbitals and eigenvalues:
    n    l      energy [Ha]    energy [eV]    outer radius [A]
    1    0       -24.399755      -663.9511       1.258458
    2    0        -1.098813       -29.9002       4.948503
    2    1        -0.408322       -11.1110       5.260416

  Assembling full basis from fixed parts.
  | Species H :   atomic orbital   1 s accepted.
  | Species H :    hydro orbital   2 s accepted.
  | Species H :    hydro orbital   1 s accepted.
  | Species H :    hydro orbital   2 s accepted.
  | Species H :    hydro orbital   2 p accepted.
  | Species H :    hydro orbital   2 p accepted.
  | Species H :    hydro orbital   3 d accepted.
  | Species O :   atomic orbital   1 s accepted.
  | Species O :    hydro orbital   3 s accepted.
  | Species O :   atomic orbital   2 s accepted.
  | Species O :    hydro orbital   1 s accepted.
  | Species O :    hydro orbital   3 p accepted.
  | Species O :   atomic orbital   2 p accepted.
  | Species O :    hydro orbital   2 p accepted.
  | Species O :    hydro orbital   3 d accepted.
  | Species O :    hydro orbital   3 d accepted.
  | Species O :    hydro orbital   4 f accepted.
  | Species O :    hydro orbital   5 g accepted.
  | Species C :   atomic orbital   1 s accepted.
  | Species C :    hydro orbital   2 s accepted.
  | Species C :   atomic orbital   2 s accepted.
  | Species C :    hydro orbital   3 s accepted.
  | Species C :    hydro orbital   3 p accepted.
  | Species C :   atomic orbital   2 p accepted.
  | Species C :    hydro orbital   2 p accepted.
  | Species C :    hydro orbital   3 d accepted.
  | Species C :    hydro orbital   3 d accepted.
  | Species C :    hydro orbital   4 f accepted.
  | Species C :    hydro orbital   5 g accepted.
  | Species F :   atomic orbital   1 s accepted.
  | Species F :    hydro orbital   3 s accepted.
  | Species F :   atomic orbital   2 s accepted.
  | Species F :    hydro orbital   1 s accepted.
  | Species F :    ionic orbital   2 p accepted.
  | Species F :   atomic orbital   2 p accepted.
  | Species F :    hydro orbital   2 p accepted.
  | Species F :    hydro orbital   3 d accepted.
  | Species F :    hydro orbital   4 d accepted.
  | Species F :    hydro orbital   4 f accepted.
  | Species F :    hydro orbital   5 g accepted.
 
  Basis size parameters after reduction:
  | Total number of radial functions:       40
  | Total number of basis functions :      108
 
  Per-task memory consumption for arrays in subroutine allocate_ext:
  |          10.066080MB.
  Testing on-site integration grid accuracy.
  |  Species  Function  <phi|h_atom|phi> (log., in eV)  <phi|h_atom|phi> (rad., in eV)
           1        1                 -6.4870767962                 -6.4871688290
           1        2                 13.5032046589                 13.5028982997
           1        3                 32.8195184817                 32.8119941656
           1        4                 33.8513856511                 33.7670005767 ***
           1        5                 28.8544614965                 28.8544615203
           1        6                 59.6326952547                 59.6327656460
           1        7                 60.2719308513                 60.2719305949
           2        8               -515.0401491148               -515.0401445421
           2        9                 15.1629302771                 15.1629233104
           2       10                -21.6127103295                -21.6127145442
           2       11                 14.4001435709                 14.4001765994
           2       12                 20.8862585187                 20.8862589493
           2       13                 -2.4803658578                 -2.4803665012
           2       14                 13.8586387760                 13.8586021622
           2       15                 45.8331828879                 45.8331828941
           2       16                 52.1851961049                 52.1851977023
           2       17                 85.4133898762                 85.4133899074
           2       18                142.1023296234                142.1023296272
           3       19               -273.4529725981               -273.4529710404
           3       20                -10.7721037329                -10.7721022112
           3       21                 17.6044132585                 17.6044162047
           3       22                 53.7706460564                 53.7706913676
           3       23                 15.0973290351                 15.0973256018
           3       24                  3.8545134677                  3.8545724672
           3       25                 12.1156992586                 12.1182024425
           3       26                 29.4352039288                 29.4352041803
           3       27                 54.8741144697                 54.8740268718
           3       28                 59.3556032036                 59.3556031368
           3       29                 93.4551837140                 93.4551837995
           4       30               -663.9511035846               -663.9510965412
           4       31                 16.8473103021                 16.8472935259
           4       32                -28.4523406728                -28.4523493215
           4       33                 12.4014432575                 12.4011752070
           4       34                -10.1252218056                -10.1252217178
           4       35                 14.2804925363                 14.2804879440
           4       36                 15.1514072140                 15.1506889873
           4       37                 44.8493934189                 44.8493934498
           4       38                 56.5646912165                 56.5646920962
           4       39                 81.3482028079                 81.3482028367
           4       40                131.3295409824                131.3295409053
 * Note: Onsite integrals marked "***" above are less accurate than
 * onsite_accuracy_threshold =    0.03000 eV. Usually, this is harmless.
 * When in doubt, tighten the "radial" and/or "radial_multiplier" flags to check.

  Preparing densities etc. for the partition functions (integrals / Hartree potential).

  Preparations completed.
  max(cpu_time)          :      0.244 s.
  Wall clock time (cpu1) :      0.241 s.
------------------------------------------------------------
  After prepare_scf [GB]:   1030.20

  Initializing index lists of integration centers etc. from given atomic structure:
  | Number of centers in hartree potential         :         4
  | Number of centers in hartree multipole         :         4
  | Number of centers in electron density summation:         4
  | Number of centers in basis integrals           :         4
  | Number of centers in integrals                 :         4
  | Number of centers in hamiltonian               :         4
  After initialize_bc_dependent_lists [GB]:   1030.20

------------------------------------------------------------
          Begin self-consistency loop: Initialization.

          Date     :  20250311, Time     :  175507.521
------------------------------------------------------------
  Available memory per node after initialize_hartree_non_periodic_ewald [GB]:   1030.20
  Available memory per node after initialize_recip_hartree_potential [GB]:   1030.20
  Available memory per node after initialize_scalapack [GB]:   1030.20
  Available memory per node after aims_elsi_init_scf [GB]:   1030.20
  Available memory per node after initialize_fixed_grids [GB]:   1030.20
  Partitioning the integration grid into batches with parallel hashing+maxmin method.
  | Number of batches:     1026
  | Maximal batch size:     195
  | Minimal batch size:      23
  | Average batch size:      66.846
  | Standard deviation of batch sizes:      17.890

  Integration load balanced across    32 MPI tasks.
  Work distribution over tasks is as follows:
  Task     0 has       2146 integration points.
  Task     1 has       2091 integration points.
  Task     2 has       2126 integration points.
  Task     3 has       2131 integration points.
  Task     4 has       2161 integration points.
  Task     5 has       2191 integration points.
  Task     6 has       2095 integration points.
  Task     7 has       2138 integration points.
  Task     8 has       2200 integration points.
  Task     9 has       2100 integration points.
  Task    10 has       2123 integration points.
  Task    11 has       2265 integration points.
  Task    12 has       2093 integration points.
  Task    13 has       2269 integration points.
  Task    14 has       2099 integration points.
  Task    15 has       2183 integration points.
  Task    16 has       2103 integration points.
  Task    17 has       2112 integration points.
  Task    18 has       2098 integration points.
  Task    19 has       2197 integration points.
  Task    20 has       2116 integration points.
  Task    21 has       2091 integration points.
  Task    22 has       2090 integration points.
  Task    23 has       2176 integration points.
  Task    24 has       2187 integration points.
  Task    25 has       2115 integration points.
  Task    26 has       2155 integration points.
  Task    27 has       2183 integration points.
  Task    28 has       2111 integration points.
  Task    29 has       2118 integration points.
  Task    30 has       2186 integration points.
  Task    31 has       2135 integration points.
  Available memory per node after partition_grid [GB]:   1030.20
  Initializing partition tables, free-atom densities, potentials, etc. across the integration grid (initialize_grid_storage).
  | initialize_grid_storage: Actual outermost partition radius vs. multipole_radius_free
  | (-- VB: in principle, multipole_radius_free should be larger, hence this output)
  | Species        1: Confinement radius =              6.000000000000000 AA, multipole_radius_free =              6.071692442739658 AA.
  | Species        1: outer_partition_radius set to              6.071692442739658 AA .
  | Species        2: Confinement radius =              6.000000000000000 AA, multipole_radius_free =              6.064445521808699 AA.
  | Species        2: outer_partition_radius set to              6.064445521808699 AA .
  | Species        3: Confinement radius =              6.000000000000000 AA, multipole_radius_free =              6.029870734432609 AA.
  | Species        3: outer_partition_radius set to              6.029870734432609 AA .
  | Species        4: Confinement radius =              6.000000000000000 AA, multipole_radius_free =              6.017578497268912 AA.
  | Species        4: outer_partition_radius set to              6.017578497268912 AA .
  | The sparse table of interatomic distances needs          0.16 kbyte instead of         0.13 kbyte of memory.
  | Using the partition_type stratmann_smoother will reduce your memory usage.
  | Net number of integration points:    68584
  | of which are non-zero points    :    61284
  Available memory per node after initialize_grid_storage_p1 [GB]:   1030.20
  Renormalizing the initial density to the exact electron count on the 3D integration grid.
  | Initial density: Formal number of electrons (from input files) :      17.0000000000
  | Integrated number of electrons on 3D grid     :      16.9999989731
  | Charge integration error                      :      -0.0000010269
  | Normalization factor for density and gradient :       1.0000000604
  Renormalizing the free-atom superposition density to the exact electron count on the 3D integration grid.
  | Formal number of electrons (from input files) :      16.0000000000
  | Integrated number of electrons on 3D grid     :      16.9999989731
  | Charge integration error                      :      -0.0000010269
  | Normalization factor for density and gradient :       1.0000000604
  Obtaining max. number of non-zero basis functions in each batch (get_n_compute_maxes).
  | Maximal number of non-zero basis functions:      108 in task     0
  | Maximal number of non-zero basis functions:      108 in task     1
  | Maximal number of non-zero basis functions:      108 in task     2
  | Maximal number of non-zero basis functions:      108 in task     3
  | Maximal number of non-zero basis functions:      108 in task     4
  | Maximal number of non-zero basis functions:      108 in task     5
  | Maximal number of non-zero basis functions:      108 in task     6
  | Maximal number of non-zero basis functions:      108 in task     7
  | Maximal number of non-zero basis functions:      108 in task     8
  | Maximal number of non-zero basis functions:      108 in task     9
  | Maximal number of non-zero basis functions:      108 in task    10
  | Maximal number of non-zero basis functions:      108 in task    11
  | Maximal number of non-zero basis functions:      108 in task    12
  | Maximal number of non-zero basis functions:      108 in task    13
  | Maximal number of non-zero basis functions:      108 in task    14
  | Maximal number of non-zero basis functions:      108 in task    15
  | Maximal number of non-zero basis functions:      108 in task    16
  | Maximal number of non-zero basis functions:      108 in task    17
  | Maximal number of non-zero basis functions:      108 in task    18
  | Maximal number of non-zero basis functions:      108 in task    19
  | Maximal number of non-zero basis functions:      108 in task    20
  | Maximal number of non-zero basis functions:      108 in task    21
  | Maximal number of non-zero basis functions:      108 in task    22
  | Maximal number of non-zero basis functions:      108 in task    23
  | Maximal number of non-zero basis functions:      108 in task    24
  | Maximal number of non-zero basis functions:      108 in task    25
  | Maximal number of non-zero basis functions:      108 in task    26
  | Maximal number of non-zero basis functions:      108 in task    27
  | Maximal number of non-zero basis functions:      108 in task    28
  | Maximal number of non-zero basis functions:      108 in task    29
  | Maximal number of non-zero basis functions:      108 in task    30
  | Maximal number of non-zero basis functions:      108 in task    31
  Selecting the method for density update.
  Loop over occupied states selected for charge density update.
  Available memory per node after get_n_compute_maxes_p1 [GB]:   1030.20
  Allocating        0.014 MB for KS_eigenvector
  Available memory per node after allocate_matrices [GB]:   1030.20
  Available memory per node after init_comm_sparse_local_matrix_scalapack [GB]:   1030.20
  Integrating Hamiltonian matrix: batch-based integration.
  Time summed over all CPUs for integration: real work        0.488 s, elapsed        0.533 s
  Available memory per node after integrate hamiltonian matrix [GB]:   1030.20
  Integrating overlap matrix.
  Time summed over all CPUs for integration: real work        0.129 s, elapsed        0.149 s
  Available memory per node after integrate ovlp matrix [GB]:   1030.20
  Available memory per node after ASI_callbacks invoke [GB]:   1030.20
  Available memory per node after save_overlap_scalapack [GB]:   1030.20

  Updating Kohn-Sham eigenvalues and eigenvectors using ELSI and the (modified) LAPACK eigensolver.
  Overlap matrix is not singular
  | Lowest and highest eigenvalues :  0.2657E-03,  0.3755E+01
  Finished singularity check of overlap matrix
  | Time :     0.001 s
  Starting LAPACK eigensolver
  Finished Cholesky decomposition
  | Time :     0.000 s
  Finished transformation to standard eigenproblem
  | Time :     0.001 s
  Finished solving standard eigenproblem
  | Time :     0.001 s
  Finished back-transformation of eigenvectors
  | Time :     0.000 s

  Obtaining occupation numbers and electronic chemical potential using ELSI.
  | Note that, for insulating systems, the printed 'chemical potential' value is not uniquely defined.
  | It can be anywhere in the energy gap, as long as it correctly separates occupied and unoccupied states.
  | In systems with a gap, the physically relevant chemical potential is the VBM or HOMO.

  | Chemical potential (Fermi level):   -10.93645612 eV
  Available memory per node after advance_KS_solution [GB]:   1030.20
  Writing Kohn-Sham eigenvalues.

  State    Occupation    Eigenvalue [Ha]    Eigenvalue [eV]
      1       2.00000         -24.479991         -666.13445
      2       2.00000         -10.139618         -275.91304
      3       2.00000          -1.299051          -35.34897
      4       2.00000          -0.729582          -19.85293
      5       2.00000          -0.606118          -16.49330
      6       2.00000          -0.586983          -15.97262
      7       2.00000          -0.540955          -14.72014
      8       2.00000          -0.418099          -11.37706
      9       0.00000          -0.218856           -5.95537
     10       0.00000          -0.029985           -0.81592
     11       0.00000           0.008293            0.22566
     12       0.00000           0.010461            0.28466
     13       0.00000           0.084891            2.31000
     14       0.00000           0.097940            2.66509
     15       0.00000           0.115455            3.14170
     16       0.00000           0.125526            3.41573
     17       0.00000           0.175967            4.78830

  Highest occupied state (VBM) at    -11.37705575 eV
  | Occupation number:      2.00000000

  Lowest unoccupied state (CBM) at    -5.95536520 eV
  | Occupation number:      0.00000000

  Overall HOMO-LUMO gap:      5.42169055 eV.
  Calculating total energy contributions from superposition of free atom densities.

  Total energy components:
  | Sum of eigenvalues            :         -77.60079367 Ha       -2111.62503393 eV
  | XC energy correction          :         -16.21773937 Ha        -441.30714169 eV
  | XC potential correction       :          20.85694072 Ha         567.54623334 eV
  | Free-atom electrostatic energy:         -65.99186178 Ha       -1795.72992464 eV
  | Hartree energy correction     :           0.00000000 Ha           0.00000000 eV
  | Entropy correction            :           0.00000000 Ha           0.00000000 eV
  | ---------------------------
  | Total energy                  :        -138.95345409 Ha       -3781.11586692 eV
  | Total energy, T -> 0          :        -138.95345409 Ha       -3781.11586692 eV  <-- do not rely on this value for anything but (periodic) metals
  | Electronic free energy        :        -138.95345409 Ha       -3781.11586692 eV

  Derived energy quantities:
  | Kinetic energy                :         138.76600049 Ha        3776.01499490 eV
  | Electrostatic energy          :        -261.50171522 Ha       -7115.82372013 eV
  | Energy correction for multipole
  | error in Hartree potential    :           0.00000000 Ha           0.00000000 eV
  | Sum of eigenvalues per atom                           :        -527.90625848 eV
  | Total energy (T->0) per atom                          :        -945.27896673 eV  <-- do not rely on this value for anything but (periodic) metals
  | Electronic free energy per atom                       :        -945.27896673 eV
  Initialize hartree_potential_storage
  Max. number of atoms included in rho_multipole:            4

  End scf initialization - timings             :  max(cpu_time)    wall_clock(cpu1)
  | Time for scf. initialization                :        0.057 s           0.056 s
  | Boundary condition initialization           :        0.017 s           0.017 s
  | Integration                                 :        0.022 s           0.022 s
  | Solution of K.-S. eqns.                     :        0.003 s           0.003 s
  | Grid partitioning                           :        0.017 s           0.017 s
  | Preloading free-atom quantities on grid     :        0.012 s           0.013 s
  | Free-atom superposition energy              :        0.001 s           0.001 s
  | Total energy evaluation                     :        0.000 s           0.000 s

  Partial memory accounting:
  | Current value for overall tracked memory usage:
  |   Minimum:        0.105 MB (on task  0)
  |   Maximum:        0.105 MB (on task  0)
  |   Average:        0.105 MB
  | Peak value for overall tracked memory usage:
  |   Minimum:        1.643 MB (on task  0 after allocating zora_vector2)
  |   Maximum:        1.643 MB (on task  0 after allocating zora_vector2)
  |   Average:        1.643 MB
  | Largest tracked array allocation so far:
  |   Minimum:        0.482 MB (zora_vector1 on task  0)
  |   Maximum:        0.482 MB (zora_vector1 on task  0)
  |   Average:        0.482 MB
  Note:  These values currently only include a subset of arrays which are explicitly tracked.
  The "true" memory usage will be greater.
------------------------------------------------------------
  Available memory after initialize_scf [GB]:   1030.20
  Available memory after allocating mixing [GB]:   1030.20
  Evaluating new KS density.
  Integration grid: deviation in total charge (<rho> - N_e) =   3.552714E-15

  Time for density update prior                :  max(cpu_time)    wall_clock(cpu1)
  | self-consistency iterative process          :        0.007 s           0.006 s
  Available memory before start of SCF loop [GB]:   1030.19

------------------------------------------------------------
          Begin self-consistency iteration #    1

  Date     :  20250311, Time     :  175507.584
------------------------------------------------------------
  Pulay mixing of updated and previous charge densities.
  Available memory per node after mixing [GB]:   1030.19
  Renormalizing the density to the exact electron count on the 3D integration grid.
  | Formal number of electrons (from input files) :      16.0000000000
  | Integrated number of electrons on 3D grid     :      16.9499999993
  | Charge integration error                      :       0.9499999993
  | Normalization factor for density and gradient :       0.9439528024
  * The proposed renormalization factor deviates too far from 1.
  * Since the initial charge in geometry.in was not equal to the formal charge,
  * it is not yet safe to renormalize the charge. If this message persists
  * even in the final s.c.f. cycle, your integration accuracy may not be good enough.

  Evaluating partitioned Hartree potential by multipole expansion.
  | Original multipole sum: apparent total charge =   0.500000E-01
  | Sum of charges compensated after spline to logarithmic grids =   0.166317E-06
  | Analytical far-field extrapolation by fixed multipoles:
  | Hartree multipole sum: apparent total charge =   0.500000E-01
  Summing up the Hartree potential.
  Time summed over all CPUs for potential: real work        0.003 s, elapsed        0.003 s
  | RMS charge density error from multipole expansion :   0.274709E-03

  Integrating Hamiltonian matrix: batch-based integration.
  Time summed over all CPUs for integration: real work        0.419 s, elapsed        0.459 s

  Updating Kohn-Sham eigenvalues and eigenvectors using ELSI and the (modified) LAPACK eigensolver.
  Starting LAPACK eigensolver
  Finished Cholesky decomposition
  | Time :     0.000 s
  Finished transformation to standard eigenproblem
  | Time :     0.000 s
  Finished solving standard eigenproblem
  | Time :     0.001 s
  Finished back-transformation of eigenvectors
  | Time :     0.000 s

  Obtaining occupation numbers and electronic chemical potential using ELSI.
  | Note that, for insulating systems, the printed 'chemical potential' value is not uniquely defined.
  | It can be anywhere in the energy gap, as long as it correctly separates occupied and unoccupied states.
  | In systems with a gap, the physically relevant chemical potential is the VBM or HOMO.

  | Chemical potential (Fermi level):   -11.18872949 eV
  Writing Kohn-Sham eigenvalues.

  State    Occupation    Eigenvalue [Ha]    Eigenvalue [eV]
      1       2.00000         -24.493884         -666.51251
      2       2.00000         -10.155573         -276.34720
      3       2.00000          -1.314580          -35.77155
      4       2.00000          -0.742840          -20.21372
      5       2.00000          -0.619182          -16.84879
      6       2.00000          -0.600584          -16.34271
      7       2.00000          -0.556143          -15.13343
      8       2.00000          -0.430775          -11.72200
      9       0.00000          -0.233491           -6.35361
     10       0.00000          -0.039618           -1.07806
     11       0.00000          -0.003201           -0.08711
     12       0.00000           0.001391            0.03785
     13       0.00000           0.074957            2.03968
     14       0.00000           0.087352            2.37696
     15       0.00000           0.105275            2.86468
     16       0.00000           0.116252            3.16338
     17       0.00000           0.166807            4.53904

  Highest occupied state (VBM) at    -11.72199532 eV
  | Occupation number:      2.00000000

  Lowest unoccupied state (CBM) at    -6.35360728 eV
  | Occupation number:      0.00000000

  Overall HOMO-LUMO gap:      5.36838805 eV.

  Total energy components:
  | Sum of eigenvalues            :         -77.82712365 Ha       -2117.78378605 eV
  | XC energy correction          :         -16.20885738 Ha        -441.06545042 eV
  | XC potential correction       :          20.84514334 Ha         567.22521038 eV
  | Free-atom electrostatic energy:         -65.99186178 Ha       -1795.72992464 eV
  | Hartree energy correction     :           0.24269038 Ha           6.60394112 eV
  | Entropy correction            :           0.00000000 Ha           0.00000000 eV
  | ---------------------------
  | Total energy                  :        -138.94000908 Ha       -3780.75000962 eV
  | Total energy, T -> 0          :        -138.94000908 Ha       -3780.75000962 eV  <-- do not rely on this value for anything but (periodic) metals
  | Electronic free energy        :        -138.94000908 Ha       -3780.75000962 eV

  Derived energy quantities:
  | Kinetic energy                :         138.76626132 Ha        3776.02209231 eV
  | Electrostatic energy          :        -261.49741302 Ha       -7115.70665150 eV
  | Energy correction for multipole
  | error in Hartree potential    :          -0.00025642 Ha          -0.00697760 eV
  | Sum of eigenvalues per atom                           :        -529.44594651 eV
  | Total energy (T->0) per atom                          :        -945.18750240 eV  <-- do not rely on this value for anything but (periodic) metals
  | Electronic free energy per atom                       :        -945.18750240 eV
  Evaluating new KS density.
  Integration grid: deviation in total charge (<rho> - N_e) =   1.776357E-14

  Self-consistency convergence accuracy:
  | Change of charge density      :  0.2764E+00
  | Change of unmixed KS density  :  0.1235E+02
  | Change of sum of eigenvalues  : -0.6159E+01 eV
  | Change of total energy        :  0.3659E+00 eV


------------------------------------------------------------
  End self-consistency iteration #     1       :  max(cpu_time)    wall_clock(cpu1)
  | Time for this iteration                     :        0.027 s           0.028 s
  | Charge density update                       :        0.006 s           0.006 s
  | Density mixing                              :        0.000 s           0.001 s
  | Hartree multipole update                    :        0.001 s           0.001 s
  | Hartree multipole summation                 :        0.004 s           0.004 s
  | Integration                                 :        0.015 s           0.014 s
  | Solution of K.-S. eqns.                     :        0.001 s           0.001 s
  | Total energy evaluation                     :        0.000 s           0.000 s

  Partial memory accounting:
  | Current value for overall tracked memory usage:
  |   Minimum:        1.269 MB (on task 22)
  |   Maximum:        1.369 MB (on task 13)
  |   Average:        1.299 MB
  | Peak value for overall tracked memory usage:
  |   Minimum:        2.807 MB (on task 22 after allocating zora_vector2)
  |   Maximum:        2.906 MB (on task 13 after allocating zora_vector2)
  |   Average:        2.836 MB
  | Largest tracked array allocation so far:
  |   Minimum:        0.482 MB (zora_vector1 on task  0)
  |   Maximum:        0.482 MB (zora_vector1 on task  0)
  |   Average:        0.482 MB
  Note:  These values currently only include a subset of arrays which are explicitly tracked.
  The "true" memory usage will be greater.
------------------------------------------------------------

------------------------------------------------------------
          Begin self-consistency iteration #    2

  Date     :  20250311, Time     :  175507.612
------------------------------------------------------------
  Pulay mixing of updated and previous charge densities.
  Available memory per node after mixing [GB]:   1030.19
  Renormalizing the density to the exact electron count on the 3D integration grid.
  | Formal number of electrons (from input files) :      16.0000000000
  | Integrated number of electrons on 3D grid     :      16.0913109040
  | Charge integration error                      :       0.0913109040
  | Normalization factor for density and gradient :       0.9943254528
  * The proposed renormalization factor deviates too far from 1.
  * Since the initial charge in geometry.in was not equal to the formal charge,
  * it is not yet safe to renormalize the charge. If this message persists
  * even in the final s.c.f. cycle, your integration accuracy may not be good enough.

  Evaluating partitioned Hartree potential by multipole expansion.
  | Original multipole sum: apparent total charge =   0.908689E+00
  | Sum of charges compensated after spline to logarithmic grids =   0.230514E-05
  | Analytical far-field extrapolation by fixed multipoles:
  | Hartree multipole sum: apparent total charge =   0.908689E+00
  Summing up the Hartree potential.
  Time summed over all CPUs for potential: real work        0.003 s, elapsed        0.003 s
  | RMS charge density error from multipole expansion :   0.498199E-02

  Integrating Hamiltonian matrix: batch-based integration.
  Time summed over all CPUs for integration: real work        0.416 s, elapsed        0.458 s

  Updating Kohn-Sham eigenvalues and eigenvectors using ELSI and the (modified) LAPACK eigensolver.
  Starting LAPACK eigensolver
  Finished Cholesky decomposition
  | Time :     0.000 s
  Finished transformation to standard eigenproblem
  | Time :     0.000 s
  Finished solving standard eigenproblem
  | Time :     0.001 s
  Finished back-transformation of eigenvectors
  | Time :     0.000 s

  Obtaining occupation numbers and electronic chemical potential using ELSI.
  | Note that, for insulating systems, the printed 'chemical potential' value is not uniquely defined.
  | It can be anywhere in the energy gap, as long as it correctly separates occupied and unoccupied states.
  | In systems with a gap, the physically relevant chemical potential is the VBM or HOMO.

  | Chemical potential (Fermi level):   -15.49880510 eV
  Highest occupied state (VBM) at    -17.50393057 eV
  | Occupation number:      2.00000000

  Lowest unoccupied state (CBM) at   -13.00883088 eV
  | Occupation number:      0.00000000

  Overall HOMO-LUMO gap:      4.49509969 eV.

  Checking to see if s.c.f. parameters should be adjusted.
  The system likely has a gap. Increased the default Pulay mixing parameter (charge_mix_param). Value:   0.200000 .
  Kept the default occupation width. Value:   0.010000 eV.

  Total energy components:
  | Sum of eigenvalues            :         -81.65926266 Ha       -2222.06159425 eV
  | XC energy correction          :         -16.10520171 Ha        -438.24483622 eV
  | XC potential correction       :          20.70585882 Ha         563.43508566 eV
  | Free-atom electrostatic energy:         -65.99186178 Ha       -1795.72992464 eV
  | Hartree energy correction     :           4.22340872 Ha         114.92479854 eV
  | Entropy correction            :           0.00000000 Ha           0.00000000 eV
  | ---------------------------
  | Total energy                  :        -138.82705861 Ha       -3777.67647091 eV
  | Total energy, T -> 0          :        -138.82705861 Ha       -3777.67647091 eV  <-- do not rely on this value for anything but (periodic) metals
  | Electronic free energy        :        -138.82705861 Ha       -3777.67647091 eV

  Derived energy quantities:
  | Kinetic energy                :         138.56107372 Ha        3770.43865381 eV
  | Electrostatic energy          :        -261.28293062 Ha       -7109.87028850 eV
  | Energy correction for multipole
  | error in Hartree potential    :          -0.00466333 Ha          -0.12689560 eV
  | Sum of eigenvalues per atom                           :        -555.51539856 eV
  | Total energy (T->0) per atom                          :        -944.41911773 eV  <-- do not rely on this value for anything but (periodic) metals
  | Electronic free energy per atom                       :        -944.41911773 eV
  Evaluating new KS density.
  Integration grid: deviation in total charge (<rho> - N_e) =   3.552714E-15

  Self-consistency convergence accuracy:
  | Change of charge density      :  0.2618E+00
  | Change of unmixed KS density  :  0.3242E-02
  | Change of sum of eigenvalues  : -0.1043E+03 eV
  | Change of total energy        :  0.3074E+01 eV


------------------------------------------------------------
  End self-consistency iteration #     2       :  max(cpu_time)    wall_clock(cpu1)
  | Time for this iteration                     :        0.027 s           0.027 s
  | Charge density update                       :        0.006 s           0.006 s
[...]


------------------------------------------------------------
  End self-consistency iteration #    15       :  max(cpu_time)    wall_clock(cpu1)
  | Time for this iteration                     :        0.026 s           0.026 s
  | Charge density update                       :        0.005 s           0.005 s
  | Density mixing                              :        0.000 s           0.000 s
  | Hartree multipole update                    :        0.001 s           0.001 s
  | Hartree multipole summation                 :        0.003 s           0.003 s
  | Integration                                 :        0.014 s           0.015 s
  | Solution of K.-S. eqns.                     :        0.001 s           0.001 s
  | Total energy evaluation                     :        0.000 s           0.000 s

  Partial memory accounting:
  | Current value for overall tracked memory usage:
  |   Minimum:        1.270 MB (on task 22)
  |   Maximum:        1.370 MB (on task 13)
  |   Average:        1.300 MB
  | Peak value for overall tracked memory usage:
  |   Minimum:        2.808 MB (on task 22 after allocating zora_vector2)
  |   Maximum:        2.907 MB (on task 13 after allocating zora_vector2)
  |   Average:        2.837 MB
  | Largest tracked array allocation so far:
  |   Minimum:        0.482 MB (zora_vector1 on task  0)
  |   Maximum:        0.482 MB (zora_vector1 on task  0)
  |   Average:        0.482 MB
  Note:  These values currently only include a subset of arrays which are explicitly tracked.
  The "true" memory usage will be greater.
------------------------------------------------------------

------------------------------------------------------------
          Begin self-consistency iteration #   16

  Date     :  20250311, Time     :  175507.980
------------------------------------------------------------
  Pulay mixing of updated and previous charge densities.
  Available memory per node after mixing [GB]:   1030.19
  Renormalizing the density to the exact electron count on the 3D integration grid.
  | Formal number of electrons (from input files) :      16.0000000000
  | Integrated number of electrons on 3D grid     :      16.0000073437
  | Charge integration error                      :       0.0000073437
  | Normalization factor for density and gradient :       0.9999995410

  Evaluating partitioned Hartree potential by multipole expansion.
  | Original multipole sum: apparent total charge =   0.100000E+01
  | Sum of charges compensated after spline to logarithmic grids =   0.296315E-05
  | Analytical far-field extrapolation by fixed multipoles:
  | Hartree multipole sum: apparent total charge =   0.100000E+01
  Summing up the Hartree potential.
  Time summed over all CPUs for potential: real work        0.003 s, elapsed        0.003 s
  | RMS charge density error from multipole expansion :   0.541549E-02

  Integrating Hamiltonian matrix: batch-based integration.
  Time summed over all CPUs for integration: real work        0.408 s, elapsed        0.451 s

  Updating Kohn-Sham eigenvalues and eigenvectors using ELSI and the (modified) LAPACK eigensolver.
  Starting LAPACK eigensolver
  Finished Cholesky decomposition
  | Time :     0.000 s
  Finished transformation to standard eigenproblem
  | Time :     0.000 s
  Finished solving standard eigenproblem
  | Time :     0.001 s
  Finished back-transformation of eigenvectors
  | Time :     0.000 s

  Obtaining occupation numbers and electronic chemical potential using ELSI.
  | Note that, for insulating systems, the printed 'chemical potential' value is not uniquely defined.
  | It can be anywhere in the energy gap, as long as it correctly separates occupied and unoccupied states.
  | In systems with a gap, the physically relevant chemical potential is the VBM or HOMO.

  | Chemical potential (Fermi level):   -15.76046938 eV
  Highest occupied state (VBM) at    -17.79907436 eV
  | Occupation number:      2.00000000

  Lowest unoccupied state (CBM) at   -13.12767659 eV
  | Occupation number:      0.00000000

  Overall HOMO-LUMO gap:      4.67139777 eV.

  Total energy components:
  | Sum of eigenvalues            :         -81.69723391 Ha       -2223.09484444 eV
  | XC energy correction          :         -16.11847678 Ha        -438.60606918 eV
  | XC potential correction       :          20.72392875 Ha         563.92679358 eV
  | Free-atom electrostatic energy:         -65.99186178 Ha       -1795.72992464 eV
  | Hartree energy correction     :           4.25960128 Ha         115.90964829 eV
  | Entropy correction            :           0.00000000 Ha           0.00000000 eV
  | ---------------------------
  | Total energy                  :        -138.82404243 Ha       -3777.59439640 eV
  | Total energy, T -> 0          :        -138.82404243 Ha       -3777.59439640 eV  <-- do not rely on this value for anything but (periodic) metals
  | Electronic free energy        :        -138.82404243 Ha       -3777.59439640 eV

  Derived energy quantities:
  | Kinetic energy                :         138.66132248 Ha        3773.16656132 eV
  | Electrostatic energy          :        -261.36688813 Ha       -7112.15488854 eV
  | Energy correction for multipole
  | error in Hartree potential    :          -0.00538109 Ha          -0.14642702 eV
  | Sum of eigenvalues per atom                           :        -555.77371111 eV
  | Total energy (T->0) per atom                          :        -944.39859910 eV  <-- do not rely on this value for anything but (periodic) metals
  | Electronic free energy per atom                       :        -944.39859910 eV

  Self-consistency convergence accuracy:
  | Change of charge density      :  0.4076E-05
  | Change of unmixed KS density  :  0.2781E-05
  | Change of sum of eigenvalues  :  0.6146E-04 eV
  | Change of total energy        :  0.4519E-07 eV

  Writing Kohn-Sham eigenvalues.

  State    Occupation    Eigenvalue [Ha]    Eigenvalue [eV]
      1       2.00000         -24.734548         -673.06129
      2       2.00000         -10.402246         -283.05951
      3       2.00000          -1.577734          -42.93233
      4       2.00000          -0.976821          -26.58065
      5       2.00000          -0.847295          -23.05606
      6       2.00000          -0.837124          -22.77931
      7       2.00000          -0.818745          -22.27919
      8       2.00000          -0.654104          -17.79907
      9       0.00000          -0.482433          -13.12768
     10       0.00000          -0.220546           -6.00136
     11       0.00000          -0.210736           -5.73442
     12       0.00000          -0.168811           -4.59357
     13       0.00000          -0.101637           -2.76567
     14       0.00000          -0.097784           -2.66085
     15       0.00000          -0.074710           -2.03296
     16       0.00000          -0.048976           -1.33271
     17       0.00000           0.000542            0.01475

  Highest occupied state (VBM) at    -17.79907436 eV
  | Occupation number:      2.00000000

  Lowest unoccupied state (CBM) at   -13.12767659 eV
  | Occupation number:      0.00000000

  Overall HOMO-LUMO gap:      4.67139777 eV.

  | Chemical Potential                          :   -15.76046938 eV
  | Note that, for insulating systems, the printed 'chemical potential' value is not uniquely defined.
  | It can be anywhere in the energy gap, as long as it correctly separates occupied and unoccupied states.
  | In systems with a gap, the physically relevant chemical potential is the VBM or HOMO.

  Self-consistency cycle converged.


------------------------------------------------------------
  End self-consistency iteration #    16       :  max(cpu_time)    wall_clock(cpu1)
  | Time for this iteration                     :        0.021 s           0.020 s
  | Charge density update                       :        0.000 s           0.000 s
  | Density mixing                              :        0.000 s           0.000 s
  | Hartree multipole update                    :        0.001 s           0.001 s
  | Hartree multipole summation                 :        0.003 s           0.003 s
  | Integration                                 :        0.014 s           0.015 s
  | Solution of K.-S. eqns.                     :        0.001 s           0.001 s
  | Total energy evaluation                     :        0.000 s           0.000 s

  Partial memory accounting:
  | Current value for overall tracked memory usage:
  |   Minimum:        1.270 MB (on task 22)
  |   Maximum:        1.370 MB (on task 13)
  |   Average:        1.300 MB
  | Peak value for overall tracked memory usage:
  |   Minimum:        2.808 MB (on task 22 after allocating zora_vector2)
  |   Maximum:        2.907 MB (on task 13 after allocating zora_vector2)
  |   Average:        2.837 MB
  | Largest tracked array allocation so far:
  |   Minimum:        0.482 MB (zora_vector1 on task  0)
  |   Maximum:        0.482 MB (zora_vector1 on task  0)
  |   Average:        0.482 MB
  Note:  These values currently only include a subset of arrays which are explicitly tracked.
  The "true" memory usage will be greater.
------------------------------------------------------------

------------------------------------------------------------
          Post-processing: scaled ZORA corrections to eigenvalues and total energy.

  Date     :  20250311, Time     :  175508.000
------------------------------------------------------------
  Computing correction matrix for scaled ZORA eigenvalues.
  Evaluating scaled zora correction for each Kohn-Sham eigenstate.
  Writing Kohn-Sham eigenvalues.

  State    Occupation    Eigenvalue [Ha]    Eigenvalue [eV]
      1       2.00000         -24.710080         -672.39550
      2       2.00000         -10.397831         -282.93938
      3       2.00000          -1.577577          -42.92806
      4       2.00000          -0.976751          -26.57876
      5       2.00000          -0.847245          -23.05471
      6       2.00000          -0.837073          -22.77792
      7       2.00000          -0.818681          -22.27745
      8       2.00000          -0.654064          -17.79800
      9       0.00000          -0.482407          -13.12696
     10       0.00000          -0.220538           -6.00115
     11       0.00000          -0.210730           -5.73426
     12       0.00000          -0.168807           -4.59347
     13       0.00000          -0.101635           -2.76563
     14       0.00000          -0.097783           -2.66081
     15       0.00000          -0.074708           -2.03292
     16       0.00000          -0.048975           -1.33268
     17       0.00000           0.000542            0.01475

  Highest occupied state (VBM) at    -17.79799777 eV
  | Occupation number:      2.00000000

  Lowest unoccupied state (CBM) at   -13.12695845 eV
  | Occupation number:      0.00000000

  Overall HOMO-LUMO gap:      4.67103933 eV.

  Total energy components:
  | Sum of eigenvalues            :         -81.63860726 Ha       -2221.49953225 eV
  | XC energy correction          :         -16.11847678 Ha        -438.60606918 eV
  | XC potential correction       :          20.72392875 Ha         563.92679358 eV
  | Free-atom electrostatic energy:         -65.99186178 Ha       -1795.72992464 eV
  | Hartree energy correction     :           4.25960128 Ha         115.90964829 eV
  | Entropy correction            :           0.00000000 Ha           0.00000000 eV
  | ---------------------------
  | Total energy                  :        -138.76541578 Ha       -3775.99908421 eV
  | Total energy, T -> 0          :        -138.76541578 Ha       -3775.99908421 eV  <-- do not rely on this value for anything but (periodic) metals
  | Electronic free energy        :        -138.76541578 Ha       -3775.99908421 eV

  Derived energy quantities:
  | Kinetic energy                :         138.71994913 Ha        3774.76187351 eV
  | Electrostatic energy          :        -261.36688813 Ha       -7112.15488854 eV
  | Energy correction for multipole
  | error in Hartree potential    :          -0.00538109 Ha          -0.14642702 eV
  | Sum of eigenvalues per atom                           :        -555.37488306 eV
  | Total energy (T->0) per atom                          :        -943.99977105 eV  <-- do not rely on this value for anything but (periodic) metals
  | Electronic free energy per atom                       :        -943.99977105 eV
  End evaluation of scaled ZORA corrections.
  | Time for scaled ZORA corrections            :        0.016 s           0.016 s
------------------------------------------------------------

  Energy and forces in a compact form:
  | Total energy uncorrected      :         -0.377599908421401E+04 eV
  | Total energy corrected        :         -0.377599908421401E+04 eV  <-- do not rely on this value for anything but (periodic) metals
  | Electronic free energy        :         -0.377599908421401E+04 eV

  ------------------------------------ 
  Start decomposition of the XC Energy 
  ------------------------------------ 
  X and C from original XC functional choice 
  Hartree-Fock Energy :          0.000000000 Ha              0.000000000 eV
  X Energy            :        -15.594729346 Ha           -424.354176399 eV
  C Energy            :         -0.523747433 Ha            -14.251892785 eV
  XC Energy w/o HF    :        -16.118476779 Ha           -438.606069184 eV
  Total XC Energy     :        -16.118476779 Ha           -438.606069184 eV
  ------------------------------------ 
  LDA X and C from self-consistent density 
  X Energy LDA        :        -14.149800594 Ha           -385.035664575 eV
  C Energy LDA        :         -1.093613237 Ha            -29.758730276 eV
  ------------------------------------ 
  End decomposition of the XC Energy 
  ------------------------------------ 

------------------------------------------------------------

------------------------------------------------------------------------------
  Final output of selected total energy values:

  The following output summarizes some interesting total energy values
  at the end of a run (AFTER all relaxation, molecular dynamics, etc.).

  | Total energy of the DFT / Hartree-Fock s.c.f. calculation      :          -3775.999084214 eV
  | Final zero-broadening corrected energy (caution - metals only) :          -3775.999084214 eV
  | For reference only, the value of 1 Hartree used in FHI-aims is :             27.211384500 eV

  Before relying on these values, please be sure to understand exactly which
  total energy value is referred to by a given number. Different objects may
  all carry the same name 'total energy'. Definitions:

  Total energy of the DFT / Hartree-Fock s.c.f. calculation:
  | Note that this energy does not include ANY quantities calculated after the
  | s.c.f. cycle, in particular not ANY RPA, MP2, etc. many-body perturbation terms.
  | Scalar relativistic effects have been included in the 'scaled ZORA' approximation.

  Final zero-broadening corrected energy:
  | For metallic systems only, a broadening of the occupation numbers at the Fermi
  | level can be extrapolated back to zero broadening by an electron-gas inspired
  | formula. For all systems that are not real metals, this value can be
  | meaningless and should be avoided.

------------------------------------------------------------------------------
  Methods described in the following list of references were used in this FHI-aims run.
  If you publish the results, please make sure to cite these reference if they apply.
  FHI-aims is an academic code, and for our developers (often, Ph.D. students
  and postdocs), scientific credit in the community is essential.
  Thank you for helping us!

  For any use of FHI-aims, please cite:

    Volker Blum, Ralf Gehrke, Felix Hanke, Paula Havu, Ville Havu,
    Xinguo Ren, Karsten Reuter, and Matthias Scheffler
    'Ab initio molecular simulations with numeric atom-centered orbitals'
    Computer Physics Communications 180, 2175-2196 (2009)
    http://doi.org/10.1016/j.cpc.2009.06.022


  The ELSI infrastructure was used in your run to solve the Kohn-Sham electronic structure.
  Please check out https://wordpress.elsi-interchange.org to learn more.
  If scalability is important for your project, please acknowledge ELSI by citing:

    V. W-z. Yu, F. Corsetti, A. Garcia, W. P. Huhn, M. Jacquelin, W. Jia,
    B. Lange, L. Lin, J. Lu, W. Mi, A. Seifitokaldani, A. Vazquez-Mayagoitia,
    C. Yang, H. Yang, and V. Blum
    'ELSI: A unified software interface for Kohn-Sham electronic structure solvers'
    Computer Physics Communications 222, 267-285 (2018).
    http://doi.org/10.1016/j.cpc.2017.09.007


  For the real-space grid partitioning and parallelization used in this calculation, please cite:

    Ville Havu, Volker Blum, Paula Havu, and Matthias Scheffler,
    'Efficient O(N) integration for all-electron electronic structure calculation'
    'using numerically tabulated basis functions'
    Journal of Computational Physics 228, 8367-8379 (2009).
    http://doi.org/10.1016/j.jcp.2009.08.008

  Of course, there are many other important community references, e.g., those cited in the
  above references. Our list is limited to references that describe implementations in the
  FHI-aims code. The reason is purely practical (length of this list) - please credit others as well.

------------------------------------------------------------
          Leaving FHI-aims.
          Date     :  20250311, Time     :  175508.032

          Computational steps:
          | Number of self-consistency cycles          :           16
          | Number of SCF (re)initializations          :            1

          Detailed time accounting                     :  max(cpu_time)    wall_clock(cpu1)
          | Total time                                  :        0.821 s           0.821 s
          | Preparation time                            :        0.244 s           0.241 s
          | Boundary condition initalization            :        0.017 s           0.017 s
          | Grid partitioning                           :        0.017 s           0.017 s
          | Preloading free-atom quantities on grid     :        0.012 s           0.013 s
          | Free-atom superposition energy              :        0.001 s           0.001 s
          | Total time for integrations                 :        0.251 s           0.253 s
          | Total time for solution of K.-S. equations  :        0.023 s           0.022 s
          | Total time for density update               :        0.091 s           0.091 s
          | Total time for mixing                       :        0.006 s           0.007 s
          | Total time for Hartree multipole update     :        0.015 s           0.015 s
          | Total time for Hartree multipole sum        :        0.056 s           0.054 s
          | Total time for total energy evaluation      :        0.001 s           0.000 s
          | Total time for scaled ZORA corrections      :        0.016 s           0.016 s

          Partial memory accounting:
          | Residual value for overall tracked memory usage across tasks:     0.000000 MB (should be 0.000000 MB)
          | Peak values for overall tracked memory usage:
          |   Minimum:        2.808 MB (on task 22 after allocating zora_vector2)
          |   Maximum:        2.907 MB (on task 13 after allocating zora_vector2)
          |   Average:        2.837 MB
          | Largest tracked array allocation:
          |   Minimum:        0.482 MB (zora_vector1 on task  0)
          |   Maximum:        0.482 MB (zora_vector1 on task  0)
          |   Average:        0.482 MB
          Note:  These values currently only include a subset of arrays which are explicitly tracked.
          The "true" memory usage will be greater.

          Have a nice day.
------------------------------------------------------------
