------------------------------------------------------------
          Invoking FHI-aims ...

          When using FHI-aims, please cite the following reference:

            Volker Blum, Ralf Gehrke, Felix Hanke, Paula Havu,
            Ville Havu, Xinguo Ren, Karsten Reuter, and Matthias Scheffler,
            'Ab Initio Molecular Simulations with Numeric Atom-Centered Orbitals',
            Computer Physics Communications 180, 2175-2196 (2009)

          In addition, many other developments in FHI-aims are likely important for
          your particular application. If so, please cite them. A partial list of references
          is written at the end of this file. Thank you for giving credit to the authors
          of these developments.

          For general information about FHI-aims please find us at

            https://fhi-aims.org

          Online tutorials can be found at

            https://fhi-aims-club.gitlab.io/tutorials/tutorials-overview/

          For any questions about FHI-aims, please visit our slack channel at

            https://fhi-aims.slack.com

          and our main development and support site at

            https://aims-git.rz-berlin.mpg.de .

          The latter site, in particular, has a wiki to collect information, as well
          as an issue tracker to log discussions, suggest improvements, and report issues
          or bugs. https://aims-git.rz-berlin.mpg.de is also the main development site
          of the project and all new and updated code versions can be obtained there.
          Please send an email to aims-coordinators@fhi-berlin.mpg.de and we will add
          you to these sites. They are for you and everyone is welcome there.

------------------------------------------------------------



  Date     :  20241013, Time     :  114017.920
  Time zero on CPU 1             :   0.332031000000000E+00  s.
  Internal wall clock time zero  :           498051617.920  s.

  FHI-aims created a unique identifier for this run for later identification
  aims_uuid : 22A0F32F-4C1B-4801-AA68-47E04FD8D806

  Build configuration of the current instance of FHI-aims
  -------------------------------------------------------
  FHI-aims version      : 240605
  Commit number         : b001b2e18
  CMake host system     : Linux-6.5.0-41-generic
  CMake version         : 3.22.1
  Fortran compiler      : /opt/intel/oneapi/mpi/2021.12/bin/mpiifort (IntelLLVM) version 2024.1.0
  Fortran compiler flags: -fc=ifx -O3 -ip -fp-model precise
  C compiler            : /opt/intel/oneapi/mpi/2021.12/bin/mpiicc (IntelLLVM) version 2024.1.0
  C compiler flags      : -cc=icx -O3 -ip -fp-model precise -std=gnu99
  C++ compiler          : /opt/intel/oneapi/mpi/2021.12/bin/mpiicpc (IntelLLVM) version 2024.1.0
  C++ compiler flags    : -cxx=icpx -O3 -ip -fp-model precise -std=c++11
  HIP compiler          :
  HIP compiler flags    :
  HIP GPU arch          :
  Using MPI
  Using ScaLAPACK
  Using LibXC
  Using i-PI
  Using RLSY
  Linking against: /opt/intel/oneapi/mkl/2024.1/lib/intel64/libmkl_intel_lp64.so
                   /opt/intel/oneapi/mkl/2024.1/lib/intel64/libmkl_sequential.so
                   /opt/intel/oneapi/mkl/2024.1/lib/intel64/libmkl_core.so
                   /opt/intel/oneapi/mkl/2024.1/lib/intel64/libmkl_blacs_intelmpi_lp64.so
                   /opt/intel/oneapi/mkl/2024.1/lib/intel64/libmkl_scalapack_lp64.so
                   /opt/intel/oneapi/mkl/2024.1/lib/intel64/libmkl_core.so

  Using       32 parallel tasks.
  Task        0 on host RSL-arvutus reporting.
  Task        1 on host RSL-arvutus reporting.
  Task        2 on host RSL-arvutus reporting.
  Task        3 on host RSL-arvutus reporting.
  Task        4 on host RSL-arvutus reporting.
  Task        5 on host RSL-arvutus reporting.
  Task        6 on host RSL-arvutus reporting.
  Task        7 on host RSL-arvutus reporting.
  Task        8 on host RSL-arvutus reporting.
  Task        9 on host RSL-arvutus reporting.
  Task       10 on host RSL-arvutus reporting.
  Task       11 on host RSL-arvutus reporting.
  Task       12 on host RSL-arvutus reporting.
  Task       13 on host RSL-arvutus reporting.
  Task       14 on host RSL-arvutus reporting.
  Task       15 on host RSL-arvutus reporting.
  Task       16 on host RSL-arvutus reporting.
  Task       17 on host RSL-arvutus reporting.
  Task       18 on host RSL-arvutus reporting.
  Task       19 on host RSL-arvutus reporting.
  Task       20 on host RSL-arvutus reporting.
  Task       21 on host RSL-arvutus reporting.
  Task       22 on host RSL-arvutus reporting.
  Task       23 on host RSL-arvutus reporting.
  Task       24 on host RSL-arvutus reporting.
  Task       25 on host RSL-arvutus reporting.
  Task       26 on host RSL-arvutus reporting.
  Task       27 on host RSL-arvutus reporting.
  Task       28 on host RSL-arvutus reporting.
  Task       29 on host RSL-arvutus reporting.
  Task       30 on host RSL-arvutus reporting.
  Task       31 on host RSL-arvutus reporting.

  Memory overcommitment is allowed on your operating system.

  Obtaining array dimensions for all initial allocations:
  
  -----------------------------------------------------------------------
  Parsing control.in (first pass over file, find array dimensions only).
  The contents of control.in will be repeated verbatim below
  unless switched off by setting 'verbatim_writeout .false.' .
  in the first line of control.in .
  -----------------------------------------------------------------------
  
    xc              pbe
    relativistic    zora scalar 1.0e-12
    KS_method	  serial
    k_grid          4 8 2
  
    spin		  collinear
    default_initial_moment	0.0
    charge          1
    force_occupation_projector    9 1 0.0 5 27
    restart_read_only   restart
  
    output          Mulliken
  
  
  ################################################################################
  #
  #  FHI-aims code project
  #  VB, Fritz-Haber Institut, 2009
  #
  #  Suggested "light" defaults for Ti atom (to be pasted into control.in file)
  #  Be sure to double-check any results obtained with these settings for post-processing,
  #  e.g., with the "tight" defaults and larger basis sets.
  #
  ################################################################################
    species        Ti
  #     global species definitions
      nucleus             22
      mass                47.867
  #
      l_hartree           4
  #
      cut_pot             3.5          1.5  1.0
      basis_dep_cutoff    1e-4
  #
      radial_base         48 5.0
      radial_multiplier   1
      angular_grids       specified
        division   0.5171   50
        division   0.9824  110
        division   1.2917  194
        division   1.4940  302
  #      division   1.6934  434
  #      division   1.8425  590
  #      division   2.1901  770
  #      division   2.2896  974
  #      division   2.8244 1202
  #      outer_grid  974
        outer_grid  302
  ################################################################################
  #
  #  Definition of "minimal" basis
  #
  ################################################################################
  #     valence basis states
      valence      4  s   2.
      valence      3  p   6.
      valence      3  d   2.
  #     ion occupancy
      ion_occ      4  s   1.
      ion_occ      3  p   6.
      ion_occ      3  d   1.
  ################################################################################
  #
  #  Suggested additional basis functions. For production calculations,
  #  uncomment them one after another (the most important basis functions are
  #  listed first).
  #
  #  Constructed for dimers: 1.6 A, 1.85 A, 2.5 A, 3.25 A, 4.25 A
  #
  ################################################################################
  #  "First tier" - improvements: -396.25 meV to -19.41 meV
       hydro 4 f 8
       hydro 3 d 2.7
       ionic 4 p auto
  #     hydro 5 g 11.6
       ionic 4 s auto
  #  "Second tier" - improvements: -16.30 meV to -2.03 meV
  #     hydro 3 d 4.4
  #     hydro 6 h 16
  #     hydro 4 f 9.4
  #     hydro 4 p 4.5
  #     hydro 1 s 0.5
  #  "Third tier" - improvements: -6.28 meV to -0.37 meV
  #     hydro 4 d 6.4
  #     hydro 4 f 10
  #     hydro 5 g 12
  #     hydro 2 p 1.7
  #     hydro 6 h 16.4
  #     hydro 4 s 3.8
  #  Further basis functions: -0.45 meV and smaller improvements
  #     hydro 3 d 8.8
  #     hydro 5 p 18
  #     hydro 4 f 22.4
  #     hydro 5 f 7.2  # -0.16 meV
  #     hydro 3 d 2.1  # -0.11 meV
  #     hydro 5 g 7.4  # -0.09 meV
  
  
  ################################################################################
  #
  #  FHI-aims code project
  #  VB, Fritz-Haber Institut, 2009
  #
  #  Suggested "light" defaults for O atom (to be pasted into control.in file)
  #  Be sure to double-check any results obtained with these settings for post-processing,
  #  e.g., with the "tight" defaults and larger basis sets.
  #
  ################################################################################
    species        O
  #     global species definitions
      nucleus             8
      mass                15.9994
  #
      l_hartree           4
  #
      cut_pot             3.5  1.5  1.0
      basis_dep_cutoff    1e-4
  #
      radial_base         36 5.0
      radial_multiplier   1
       angular_grids specified
        division   0.2659   50
        division   0.4451  110
        division   0.6052  194
        division   0.7543  302
  #      division   0.8014  434
  #      division   0.8507  590
  #      division   0.8762  770
  #      division   0.9023  974
  #      division   1.2339 1202
  #      outer_grid 974
        outer_grid 302
  ################################################################################
  #
  #  Definition of "minimal" basis
  #
  ################################################################################
  #     valence basis states
      valence      2  s   2.
      valence      2  p   4.
  #     ion occupancy
      ion_occ      2  s   1.
      ion_occ      2  p   3.
  ################################################################################
  #
  #  Suggested additional basis functions. For production calculations,
  #  uncomment them one after another (the most important basis functions are
  #  listed first).
  #
  #  Constructed for dimers: 1.0 A, 1.208 A, 1.5 A, 2.0 A, 3.0 A
  #
  ################################################################################
  #  "First tier" - improvements: -699.05 meV to -159.38 meV
       hydro 2 p 1.8
       hydro 3 d 7.6
       hydro 3 s 6.4
  #  "Second tier" - improvements: -49.91 meV to -5.39 meV
  #     hydro 4 f 11.6
  #     hydro 3 p 6.2
  #     hydro 3 d 5.6
  #     hydro 5 g 17.6
  #     hydro 1 s 0.75
  #  "Third tier" - improvements: -2.83 meV to -0.50 meV
  #     ionic 2 p auto
  #     hydro 4 f 10.8
  #     hydro 4 d 4.7
  #     hydro 2 s 6.8
  #  "Fourth tier" - improvements: -0.40 meV to -0.12 meV
  #     hydro 3 p 5
  #     hydro 3 s 3.3
  #     hydro 5 g 15.6
  #     hydro 4 f 17.6
  #     hydro 4 d 14
  # Further basis functions - -0.08 meV and below
  #     hydro 3 s 2.1
  #     hydro 4 d 11.6
  #     hydro 3 p 16
  #     hydro 2 s 17.2
  
  ################################################################################
  #
  #  "Core" basis functions and numerical settings for O atom.
  #  Based on “tight” defaults (V. Blum, 2009).
  #
  ################################################################################
    species        O1
  #     global species definitions
      nucleus             8
      mass                15.9994
  #
      l_hartree           6
  #
      cut_pot             4.0  2.0  1.0
      basis_dep_cutoff    1e-4
  #
      radial_base         36 7.0
      radial_multiplier   2
       angular_grids specified
        division   0.1817   50
        division   0.3417  110
        division   0.4949  194
        division   0.6251  302
        division   0.8014  434
  #      division   0.8507  590
  #      division   0.8762  770
  #      division   0.9023  974
  #      division   1.2339 1202
  #      outer_grid 974
        outer_grid  434
  ################################################################################
  #
  #  Definition of "minimal" basis
  #
  ################################################################################
  #     valence basis states
      valence      2  s   2.
      valence      2  p   4.
  #     ion occupancy
      ion_occ      2  s   1.
      ion_occ      2  p   3.
  ################################################################################
  #
  #  Suggested additional basis functions. For production calculations,
  #  uncomment them one after another (the most important basis functions are
  #  listed first).
  #
  #  Constructed for dimers: 1.0 A, 1.208 A, 1.5 A, 2.0 A, 3.0 A
  #
  ################################################################################
  #  "First tier" - improvements: -699.05 meV to -159.38 meV
       hydro 2 p 1.8
       hydro 3 d 7.6
       hydro 3 s 6.4
  #  "Second tier" - improvements: -49.91 meV to -5.39 meV
       hydro 4 f 11.6
       hydro 3 p 6.2
       hydro 3 d 5.6
       hydro 5 g 17.6
       hydro 1 s 0.75
  #  "Third tier" - improvements: -2.83 meV to -0.50 meV
       ionic 2 p auto
       hydro 4 f 10.8
       hydro 4 d 4.7
       hydro 2 s 6.8
  #  "Fourth tier" - improvements: -0.40 meV to -0.12 meV
  #     hydro 3 p 5
  #     hydro 3 s 3.3
  #     hydro 5 g 15.6
  #     hydro 4 f 17.6
  #     hydro 4 d 14
  # Further basis functions - -0.08 meV and below
  #     hydro 3 s 2.1
  #     hydro 4 d 11.6
  #     hydro 3 p 16
  #     hydro 2 s 17.2
  
  # Additional basis functions for atom with a core hole
       hydro 1 s 12.0
       hydro 1 s 10.0
       hydro 1 s 6.0
       hydro 2 s 10.0
       hydro 2 p 8.0
       hydro 2 p 6.0
       hydro 3 d 8.0
  
  -----------------------------------------------------------------------
  Completed first pass over input file control.in .
  -----------------------------------------------------------------------
  
  
  -----------------------------------------------------------------------
  Parsing geometry.in (first pass over file, find array dimensions only).
  The contents of geometry.in will be repeated verbatim below
  unless switched off by setting 'verbatim_writeout .false.' .
  in the first line of geometry.in .
  -----------------------------------------------------------------------
  
  lattice_vector 6.566127 0.000000 0.000000
  lattice_vector 0.000000 2.972883 0.000000
  lattice_vector 0.000000 0.000000 22.332457
  
  atom_frac 0.999994 0.000000 0.368597 O
  atom_frac 0.305556 0.500000 0.425767 O
  atom_frac 0.499997 0.000000 0.425768 Ti
  atom_frac 0.999997 0.500000 0.425768 Ti
  atom_frac 0.694439 0.500000 0.425769 O
  atom_frac 0.000001 0.000000 0.482939 O
  atom_frac 0.499991 0.000000 0.515613 O1
  atom_frac 0.805553 0.500000 0.572783 O
  atom_frac 0.999995 0.000000 0.572784 Ti
  atom_frac 0.499995 0.500000 0.572784 Ti
  atom_frac 0.194436 0.500000 0.572786 O
  atom_frac 0.499998 0.000000 0.629955 O
  
  -----------------------------------------------------------------------
  Completed first pass over input file geometry.in .
  -----------------------------------------------------------------------
  

  Basic array size parameters:
  | Number of species                 :        3
  | Number of atoms                   :       12
  | Number of lattice vectors         :        3
  | Max. basis fn. angular momentum   :        4
  | Max. atomic/ionic basis occupied n:        4
  | Max. number of basis fn. types    :        3
  | Max. radial fns per species/type  :       18
  | Max. logarithmic grid size        :     1383
  | Max. radial integration grid size :       73
  | Max. angular integration grid size:      434
  | Max. angular grid division number :        8
  | Radial grid for Hartree potential :     1383
  | Number of spin channels           :        2

------------------------------------------------------------
          Reading file control.in.
------------------------------------------------------------
  XC: Using PBE gradient-corrected functionals.
  Scalar relativistic treatment of kinetic energy: ZORA.
  Threshold value for ZORA:   0.100000E-11
  Kohn-Sham eigenvalues and eigenfunctions calculated by LAPACK via ELSI.
  Found k-point grid:         4         8         2
  Spin treatment: Spin density functional theory - collinear spins.
  Initial spin moment per atom:   0.0000
  Charged system requested: Charge =   0.100000E+01.
  Occupation forced using projector   1        9   0.00000000
  Reading restart information from file restart000
  Mulliken charge analysis will be performed and summarised to the main output.
  Full Mulliken charge analysis will be written to file 'Mulliken.out'.
 
  Reading configuration options for species Ti                  .
  | Found nuclear charge :  22.0000
  | Found atomic mass :    47.8670000000000      amu
  | Found l_max for Hartree potential  :   4
  | Found cutoff potl. onset [A], width [A], scale factor :    3.50000    1.50000    1.00000
  | Threshold for basis-dependent cutoff potential is   0.100000E-03
  | Found data for basic radial integration grid :    48 points, outermost radius =    5.000 A
  | Found multiplier for basic radial grid :   1
  | Found angular grid specification: user-specified.
  | Specified grid contains     5 separate shells.
  | Check grid settings after all constraints further below.
  | Found free-atom valence shell :  4 s   2.000
  | Found free-atom valence shell :  3 p   6.000
  | Found free-atom valence shell :  3 d   2.000
  | Found free-ion valence shell :  4 s   1.000
  | Found free-ion valence shell :  3 p   6.000
  | Found free-ion valence shell :  3 d   1.000
  | Found hydrogenic basis function :  4 f   8.000
  | Found hydrogenic basis function :  3 d   2.700
  | Found ionic basis function :  4 p , default cutoff radius.
  | Found ionic basis function :  4 s , default cutoff radius.
 | Encountered keyword species, ending the description of species Ti                  .
  Species Ti                  : Missing cutoff potential type.
  Defaulting to exp(1/x)/(1-x)^2 type cutoff potential.
  Species Ti: No 'logarithmic' tag. Using default grid for free atom:
  | Default logarithmic grid data [bohr] : 0.1000E-03 0.1000E+03 0.1012E+01
  | Will include ionic basis functions of  2.0-fold positive Ti                   ion.
  Species Ti: On-site basis accuracy parameter (for Gram-Schmidt orthonormalisation) not specified.
  Using default value basis_acc =  0.1000000E-03.
  Species Ti                  : Using default innermost maximum threshold i_radial=  2 for radial functions.
  Species Ti                  : Default cutoff onset for free atom density etc. : 0.35000000E+01 AA.
  Species Ti                  : Basic radial grid will be enhanced according to radial_multiplier =   1, to contain    48 grid points.
 
  Reading configuration options for species O                   .
  | Found nuclear charge :   8.0000
  | Found atomic mass :    15.9994000000000      amu
  | Found l_max for Hartree potential  :   4
  | Found cutoff potl. onset [A], width [A], scale factor :    3.50000    1.50000    1.00000
  | Threshold for basis-dependent cutoff potential is   0.100000E-03
  | Found data for basic radial integration grid :    36 points, outermost radius =    5.000 A
  | Found multiplier for basic radial grid :   1
  | Found angular grid specification: user-specified.
  | Specified grid contains     5 separate shells.
  | Check grid settings after all constraints further below.
  | Found free-atom valence shell :  2 s   2.000
  | Found free-atom valence shell :  2 p   4.000
  | Found free-ion valence shell :  2 s   1.000
  | Found free-ion valence shell :  2 p   3.000
  | Found hydrogenic basis function :  2 p   1.800
  | Found hydrogenic basis function :  3 d   7.600
  | Found hydrogenic basis function :  3 s   6.400
 | Encountered keyword species, ending the description of species O                   .
  Species O                   : Missing cutoff potential type.
  Defaulting to exp(1/x)/(1-x)^2 type cutoff potential.
  Species O : No 'logarithmic' tag. Using default grid for free atom:
  | Default logarithmic grid data [bohr] : 0.1000E-03 0.1000E+03 0.1012E+01
  Species O : On-site basis accuracy parameter (for Gram-Schmidt orthonormalisation) not specified.
  Using default value basis_acc =  0.1000000E-03.
  Species O                   : Using default innermost maximum threshold i_radial=  2 for radial functions.
  Species O                   : Default cutoff onset for free atom density etc. : 0.35000000E+01 AA.
  Species O                   : Basic radial grid will be enhanced according to radial_multiplier =   1, to contain    36 grid points.
 
  Reading configuration options for species O1                  .
  | Found nuclear charge :   8.0000
  | Found atomic mass :    15.9994000000000      amu
  | Found l_max for Hartree potential  :   6
  | Found cutoff potl. onset [A], width [A], scale factor :    4.00000    2.00000    1.00000
  | Threshold for basis-dependent cutoff potential is   0.100000E-03
  | Found data for basic radial integration grid :    36 points, outermost radius =    7.000 A
  | Found multiplier for basic radial grid :   2
  | Found angular grid specification: user-specified.
  | Specified grid contains     6 separate shells.
  | Check grid settings after all constraints further below.
  | Found free-atom valence shell :  2 s   2.000
  | Found free-atom valence shell :  2 p   4.000
  | Found free-ion valence shell :  2 s   1.000
  | Found free-ion valence shell :  2 p   3.000
  | Found hydrogenic basis function :  2 p   1.800
  | Found hydrogenic basis function :  3 d   7.600
  | Found hydrogenic basis function :  3 s   6.400
  | Found hydrogenic basis function :  4 f  11.600
  | Found hydrogenic basis function :  3 p   6.200
  | Found hydrogenic basis function :  3 d   5.600
  | Found hydrogenic basis function :  5 g  17.600
  | Found hydrogenic basis function :  1 s   0.750
  | Found ionic basis function :  2 p , default cutoff radius.
  | Found hydrogenic basis function :  4 f  10.800
  | Found hydrogenic basis function :  4 d   4.700
  | Found hydrogenic basis function :  2 s   6.800
  | Found hydrogenic basis function :  1 s  12.000
  | Found hydrogenic basis function :  1 s  10.000
  | Found hydrogenic basis function :  1 s   6.000
  | Found hydrogenic basis function :  2 s  10.000
  | Found hydrogenic basis function :  2 p   8.000
  | Found hydrogenic basis function :  2 p   6.000
  | Found hydrogenic basis function :  3 d   8.000
  Species O1                  : Missing cutoff potential type.
  Defaulting to exp(1/x)/(1-x)^2 type cutoff potential.
  Species O1: No 'logarithmic' tag. Using default grid for free atom:
  | Default logarithmic grid data [bohr] : 0.1000E-03 0.1000E+03 0.1012E+01
  | Will include ionic basis functions of  2.0-fold positive O1                   ion.
  Species O1: On-site basis accuracy parameter (for Gram-Schmidt orthonormalisation) not specified.
  Using default value basis_acc =  0.1000000E-03.
  Species O1                  : Using default innermost maximum threshold i_radial=  2 for radial functions.
  Species O1                  : Default cutoff onset for free atom density etc. : 0.40000000E+01 AA.
  Species O1                  : Basic radial grid will be enhanced according to radial_multiplier =   2, to contain    73 grid points.
 
  Finished reading input file 'control.in'.
 
------------------------------------------------------------


------------------------------------------------------------
          Reading geometry description geometry.in.
------------------------------------------------------------
  | The smallest distance between any two atoms is         1.95947270 AA.
  | The first atom of this pair is atom number                      2 .
  | The second atom of this pair is atom number                     3 .
  | Wigner-Seitz cell of the first atom image           0     0     0 .
  | (The Wigner-Seitz cell of the second atom is 0 0 0  by definition.)

  Symmetry information by spglib:
  | Precision set to  0.1E-04
  | Number of Operations  : 2
  | Space group           : 6
  | International         : Pm      /op
  | Schoenflies           : Cs^1
  Input structure read successfully.
  The structure contains       12 atoms,  and a total of        151.000 electrons.

  Input geometry:
  | Unit cell:
  |        6.56612700        0.00000000        0.00000000
  |        0.00000000        2.97288300        0.00000000
  |        0.00000000        0.00000000       22.33245700
  | Atomic structure:
  |       Atom                x [A]            y [A]            z [A]
  |    1: Species O             6.56608760        0.00000000        8.23167665
  |    2: Species O             2.00631950        1.48644150        9.50842322
  |    3: Species Ti            3.28304380        0.00000000        9.50844555
  |    4: Species Ti            6.56610730        1.48644150        9.50844555
  |    5: Species O             4.55977467        1.48644150        9.50846788
  |    6: Species O             0.00000657        0.00000000       10.78521445
  |    7: Species O1            3.28300440        0.00000000       11.51490515
  |    8: Species O             5.28936330        1.48644150       12.79165172
  |    9: Species Ti            6.56609417        0.00000000       12.79167405
  |   10: Species Ti            3.28303067        1.48644150       12.79167405
  |   11: Species O             1.27669147        1.48644150       12.79171872
  |   12: Species O             3.28305037        0.00000000       14.06844295

  Lattice parameters for 3D lattice (in Angstroms) :     6.566127    2.972883   22.332457
  Angle(s) between unit vectors (in degrees)       :    90.000000   90.000000   90.000000


  Quantities derived from the lattice vectors (in Angstrom^-1):
  | Reciprocal lattice vector 1:  0.956909  0.000000  0.000000
  | Reciprocal lattice vector 2:  0.000000  2.113499  0.000000
  | Reciprocal lattice vector 3:  0.000000  0.000000  0.281348
  | Unit cell volume                               :   0.435937E+03  Angstrom^3

  Fractional coordinates:
                         L1                L2                L3
       atom_frac         0.99999400        0.00000000        0.36859700  O
       atom_frac         0.30555600        0.50000000        0.42576700  O
       atom_frac         0.49999700        0.00000000        0.42576800  Ti
       atom_frac         0.99999700        0.50000000        0.42576800  Ti
       atom_frac         0.69443900        0.50000000        0.42576900  O
       atom_frac         0.00000100        0.00000000        0.48293900  O
       atom_frac         0.49999100        0.00000000        0.51561300  O1
       atom_frac         0.80555300        0.50000000        0.57278300  O
       atom_frac         0.99999500        0.00000000        0.57278400  Ti
       atom_frac         0.49999500        0.50000000        0.57278400  Ti
       atom_frac         0.19443600        0.50000000        0.57278600  O
       atom_frac         0.49999800        0.00000000        0.62995500  O

  Initial moments and charges:
  |  Atom   Moment         Charge        Species
  |     1   0.000000E+00   0.000000E+00   O
  |     2   0.000000E+00   0.000000E+00   O
  |     3   0.000000E+00   0.000000E+00   Ti
  |     4   0.000000E+00   0.000000E+00   Ti
  |     5   0.000000E+00   0.000000E+00   O
  |     6   0.000000E+00   0.000000E+00   O
  |     7   0.000000E+00   0.000000E+00   O1
  |     8   0.000000E+00   0.000000E+00   O
  |     9   0.000000E+00   0.000000E+00   Ti
  |    10   0.000000E+00   0.000000E+00   Ti
  |    11   0.000000E+00   0.000000E+00   O
  |    12   0.000000E+00   0.000000E+00   O

  Slab Identifier: This is Z-oriented slab and maximum thickness of the vacuum is: 16.496 Angstrom.
 
  Finished reading input file 'geometry.in'.
 

 
  Consistency checks for stacksize environment parameter are next.
 
  | Maximum stacksize for task 0: unlimited
  | Maximum stacksize for task 1: unlimited
  | Maximum stacksize for task 2: unlimited
  | Maximum stacksize for task 3: unlimited
  | Maximum stacksize for task 4: unlimited
  | Maximum stacksize for task 5: unlimited
  | Maximum stacksize for task 6: unlimited
  | Maximum stacksize for task 7: unlimited
  | Maximum stacksize for task 8: unlimited
  | Maximum stacksize for task 9: unlimited
  | Maximum stacksize for task 10: unlimited
  | Maximum stacksize for task 11: unlimited
  | Maximum stacksize for task 12: unlimited
  | Maximum stacksize for task 13: unlimited
  | Maximum stacksize for task 14: unlimited
  | Maximum stacksize for task 15: unlimited
  | Maximum stacksize for task 16: unlimited
  | Maximum stacksize for task 17: unlimited
  | Maximum stacksize for task 18: unlimited
  | Maximum stacksize for task 19: unlimited
  | Maximum stacksize for task 20: unlimited
  | Maximum stacksize for task 21: unlimited
  | Maximum stacksize for task 22: unlimited
  | Maximum stacksize for task 23: unlimited
  | Maximum stacksize for task 24: unlimited
  | Maximum stacksize for task 25: unlimited
  | Maximum stacksize for task 26: unlimited
  | Maximum stacksize for task 27: unlimited
  | Maximum stacksize for task 28: unlimited
  | Maximum stacksize for task 29: unlimited
  | Maximum stacksize for task 30: unlimited
  | Maximum stacksize for task 31: unlimited
  | Current stacksize for task 0: unlimited
  | Current stacksize for task 1: unlimited
  | Current stacksize for task 2: unlimited
  | Current stacksize for task 3: unlimited
  | Current stacksize for task 4: unlimited
  | Current stacksize for task 5: unlimited
  | Current stacksize for task 6: unlimited
  | Current stacksize for task 7: unlimited
  | Current stacksize for task 8: unlimited
  | Current stacksize for task 9: unlimited
  | Current stacksize for task 10: unlimited
  | Current stacksize for task 11: unlimited
  | Current stacksize for task 12: unlimited
  | Current stacksize for task 13: unlimited
  | Current stacksize for task 14: unlimited
  | Current stacksize for task 15: unlimited
  | Current stacksize for task 16: unlimited
  | Current stacksize for task 17: unlimited
  | Current stacksize for task 18: unlimited
  | Current stacksize for task 19: unlimited
  | Current stacksize for task 20: unlimited
  | Current stacksize for task 21: unlimited
  | Current stacksize for task 22: unlimited
  | Current stacksize for task 23: unlimited
  | Current stacksize for task 24: unlimited
  | Current stacksize for task 25: unlimited
  | Current stacksize for task 26: unlimited
  | Current stacksize for task 27: unlimited
  | Current stacksize for task 28: unlimited
  | Current stacksize for task 29: unlimited
  | Current stacksize for task 30: unlimited
  | Current stacksize for task 31: unlimited
 
  Consistency checks for the contents of control.in are next.
 
  *** WARNING: The force_occupation functionality has been replaced with new deltascf_basis ***
  *** and deltascf_projector and will be removed in an upcoming release ***
  MPI_IN_PLACE appears to work with this MPI implementation.
  | Keeping use_mpi_in_place .true. (see manual).
  Target number of points in a grid batch is not set. Defaulting to  100
  Method for grid partitioning is not set. Defaulting to parallel hash+maxmin partitioning.
  Batch size limit is not set. Defaulting to    200
  By default, will store active basis functions for each batch.
  If in need of memory, prune_basis_once .false. can be used to disable this option.
  communication_type for Hartree potential was not specified.
  Defaulting to calc_hartree .
  Defaulting to Pulay charge density mixer.
  Pulay mixer: Number of relevant iterations not set.
  Defaulting to    8 iterations.
  Pulay mixer: Number of initial linear mixing iterations not set.
  Defaulting to    0 iterations.
  Work space size for distributed Hartree potential not set.
  Defaulting to   0.200000E+03 MB.
  Mixing parameter for charge density mixing has not been set.
  Using default: charge_mix_param =     0.0500.
  The mixing parameter will be adjusted in iteration number     2 of each s.c.f. cycle (i.e., each geometry step).
  Mixing parameter for spin density mixing has not been set.
  Using charge_mix_param as default:     0.0500.
  Algorithm-dependent basis array size parameters:
  | n_max_pulay                         :        8
  Maximum number of self-consistency iterations not provided.
  Presetting  1000 iterations.
  Presetting      1001 iterations before the initial mixing cycle
  is restarted anyway using the sc_init_iter criterion / keyword.
  Presetting a factor      1.000 between actual scf density residual
  and density convergence criterion sc_accuracy_rho below which sc_init_iter
  takes no effect.
 * No s.c.f. convergence criteria (sc_accuracy_*) were provided in control.in.
 * The run will proceed with a reasonable default guess, but please check whether.
 * the s.c.f. cycles seem to take too much or too little time.
  Calculation of forces was not defined in control.in. No forces will be calculated.
  Geometry relaxation not requested: no relaxation will be performed.
 * Notice: The s.c.f. convergence criterion sc_accuracy_rho was not provided.
 * We used to stop in this case, and ask the user to provide reasonable
 * scf convergence criteria. However, this led some users to employ criteria
 * that led to extremely long run times, e.g., for simple relaxation.
 * We now preset a default value for sc_accuracy_rho if it is not set.
 * You may still wish to check if this setting is too tight or too loose for your needs.
 * Based on n_atoms and forces and force-correction status, FHI-aims chose sc_accuracy_rho =  0.141421E-05 .
  No accuracy limit for integral partition fn. given. Defaulting to  0.1000E-14.
  No threshold value for u(r) in integrations given. Defaulting to  0.1000E-05.
  No occupation type (smearing scheme) given. Defaulting to Gaussian broadening, width =  0.1000E-01 eV.
  The width will be adjusted in iteration number     2 of each s.c.f. cycle (i.e., each geometry step).
  No accuracy for occupation numbers given. Defaulting to  0.1000E-07.
  No threshold value for occupation numbers given. Defaulting to  0.0000E+00.
  No accuracy for fermi level given. Defaulting to  0.1000E-19.
  Maximum # of iterations to find E_F not set. Defaulting to  200.
  Will not use alltoall communication since running on < 1024 CPUs.
  Threshold for basis singularities not set.
  Default threshold for basis singularities:  0.1000E-04
  partition_type (choice of integration weights) for integrals was not specified.
  | Using a version of the partition function of Stratmann and coworkers ('stratmann_sparse').
  | At each grid point, the set of atoms used to build the partition table is smoothly restricted to
  | only those atoms whose free-atom density would be non-zero at that grid point.
  Partitioning for Hartree potential was not defined. Using partition_type for integrals.
  | Adjusted default value of keyword multip_moments_threshold to:       0.10000000E-11
  | This value may affect high angular momentum components of the Hartree potential in periodic systems.
  Angular momentum expansion for Kerker preconditioner not set explicitly.
  | Using default value of   0
  No explicit requirement for turning off preconditioner.
  | By default, it will be turned off when the charge convergence reaches
  | sc_accuracy_rho  =   0.141421E-05
  No special mixing parameter while Kerker preconditioner is on.
  Using default: charge_mix_param =     0.0500.
  No q(lm)/r^(l+1) cutoff set for long-range Hartree potential.
  | Using default value of  0.100000E-09 .
  | Verify using the multipole_threshold keyword.
  Defaulting to new monopole extrapolation.
  Density update method: automatic selection selected.
  Using density matrix based charge density update.
  Using density matrix based charge density update.
  Using packed matrix style: index .
  Defaulting to use time-reversal symmetry for k-point grid.
  Charge integration errors on the 3D integration grid will be compensated
  by explicit normalization and distribution of residual charges.
  Use the "compensate_multipole_errors" flag to change this behaviour.
  Set 'collect_eigenvectors' to be '.true.' for all serial calculations. This is mandatory.
  Set 'collect_eigenvectors' to be '.true.' for KS_method lapack_fast and serial.
  Found potential conflicts with setting 'use_local_index' for this calculation. Will not set it.
 
  Consistency checks for the contents of geometry.in are next.
 

  Range separation radius for Ewald summation (hartree_convergence_parameter):      4.81466675 bohr.
 * Warning: Initial charge and total charge of the system are inconsistent.
 * Selected charge in control.in:     1.0000* Sum of initial charges in geometry.in:     0.0000
  Number of empty states per atom not set in control.in - providing a guess from actual geometry.
  | Total number of empty states used during s.c.f. cycle:       46
  If you use a very high smearing, use empty_states (per atom!) in control.in to increase this value.

  Structure-dependent array size parameters: 
  | Number of distinct atom types in initial rho :        3
  | Maximum number of distinct radial functions  :       39
  | Maximum number of basis functions            :      292
  | Number of Kohn-Sham states (occupied + empty):      122
------------------------------------------------------------
  After read_input_data [GB]:   1006.96

  Performing system and environment tests:
  *** Environment variable OMP_NUM_THREADS is not set
  *** For performance reasons you might want to set it to 1
  | Checking for ScaLAPACK...
  | Testing pdtran()...
  | All pdtran() tests passed.
  After prepare_system [GB]:   1006.83

------------------------------------------------------------
          Preparing all fixed parts of the calculation.
------------------------------------------------------------
  Determining machine precision:
    2.225073858507201E-308
  Setting up grids for atomic and cluster calculations.

  Creating wave function, potential, and density for free atoms.
  Runtime choices for atomic solver:
  | atomic solver xc        : PBE
  | compute density gradient: 1
  | compute kinetic density : F

  Species: Ti

  List of occupied orbitals and eigenvalues:
    n    l              occ      energy [Ha]    energy [eV]
    1    0           2.0000      -179.959082     -4896.9358
    2    0           2.0000       -19.727662      -536.8170
    3    0           2.0000        -2.283029       -62.1244
    4    0           2.0000        -0.148384        -4.0377
    2    1           6.0000       -16.317278      -444.0157
    3    1           6.0000        -1.409348       -38.3503
    3    2           2.0000        -0.139340        -3.7916


  Species: O

  List of occupied orbitals and eigenvalues:
    n    l              occ      energy [Ha]    energy [eV]
    1    0           2.0000       -18.926989      -515.0296
    2    0           2.0000        -0.880247       -23.9527
    2    1           4.0000        -0.331514        -9.0210


  Species: O1

  List of occupied orbitals and eigenvalues:
    n    l              occ      energy [Ha]    energy [eV]
    1    0           2.0000       -18.927378      -515.0401
    2    0           2.0000        -0.880539       -23.9607
    2    1           4.0000        -0.331811        -9.0290

  Spin-polarized or charged system:
  Charge density initialized according to selected moments and charges.

  Creating spin-polarized density from free atoms.

  Species: O
  Charge:   0.000000
  Moment:   0.000000

  List of occupied orbitals and eigenvalues:
    n    l      energy [Ha]    energy [eV]    occupation
  Spin-up
    1    0       -18.926989      -515.0296     1.00000000
    2    0        -0.880247       -23.9527     1.00000000
    2    1        -0.331514        -9.0210     2.00000000
  Spin-down
    1    0       -18.926989      -515.0296     1.00000000
    2    0        -0.880247       -23.9527     1.00000000
    2    1        -0.331514        -9.0210     2.00000000


  Species: Ti
  Charge:   0.000000
  Moment:   0.000000

  List of occupied orbitals and eigenvalues:
    n    l      energy [Ha]    energy [eV]    occupation
  Spin-up
    1    0      -179.959082     -4896.9358     1.00000000
    2    0       -19.727662      -536.8170     1.00000000
    3    0        -2.283029       -62.1244     1.00000000
    4    0        -0.148384        -4.0377     1.00000000
    2    1       -16.317278      -444.0157     3.00000000
    3    1        -1.409348       -38.3503     3.00000000
    3    2        -0.139340        -3.7916     1.00000000
  Spin-down
    1    0      -179.959082     -4896.9358     1.00000000
    2    0       -19.727662      -536.8170     1.00000000
    3    0        -2.283029       -62.1244     1.00000000
    4    0        -0.148384        -4.0377     1.00000000
    2    1       -16.317278      -444.0157     3.00000000
    3    1        -1.409348       -38.3503     3.00000000
    3    2        -0.139340        -3.7916     1.00000000


  Species: O1
  Charge:   0.000000
  Moment:   0.000000

  List of occupied orbitals and eigenvalues:
    n    l      energy [Ha]    energy [eV]    occupation
  Spin-up
    1    0       -18.927378      -515.0401     1.00000000
    2    0        -0.880539       -23.9607     1.00000000
    2    1        -0.331811        -9.0290     2.00000000
  Spin-down
    1    0       -18.927378      -515.0401     1.00000000
    2    0        -0.880539       -23.9607     1.00000000
    2    1        -0.331811        -9.0290     2.00000000


  Adding cutoff potential to free-atom effective potential.
  Creating fixed part of basis set: Ionic, confined, hydrogenic.
 
  Ti                   ion:

  List of free ionic orbitals and eigenvalues:
    n    l      energy [Ha]    energy [eV]
    1    0      -180.819616     -4920.3521
    2    0       -20.608761      -560.7929
    3    0        -3.115729       -84.7833
    4    0        -0.697188       -18.9715
    2    1       -17.196209      -467.9327
    3    1        -2.231296       -60.7167
    3    2        -0.911363       -24.7995


  List of ionic basis orbitals and eigenvalues:
    n    l      energy [Ha]    energy [eV]    outer radius [A]
    4    1        -0.517739       -14.0884       4.592117
    4    0        -0.696824       -18.9615       4.536321

 
  Ti                   hydrogenic:
 
  List of hydrogenic basis orbitals: 
    n    l      effective z      eigenvalue [eV]  inner max. [A]     outer max. [A]     outer radius [A]   
    4    3         8.000000       -54.4222           1.059019           1.059019           4.267343
    3    2         2.700000       -10.7798           1.726925           1.726925           4.592117
 
 
  O                    hydrogenic:
 
  List of hydrogenic basis orbitals: 
    n    l      effective z      eigenvalue [eV]  inner max. [A]     outer max. [A]     outer radius [A]   
    2    1         1.800000       -10.9749           1.164242           1.164242           4.578029
    3    2         7.600000       -87.3180           0.624125           0.624125           3.251020
    3    0         6.400000       -61.9207           0.061167           1.081902           4.001998
 
 
  O1                   ion:

  List of free ionic orbitals and eigenvalues:
    n    l      energy [Ha]    energy [eV]
    1    0       -20.485570      -557.4407
    2    0        -2.134830       -58.0917
    2    1        -1.577627       -42.9294


  List of ionic basis orbitals and eigenvalues:
    n    l      energy [Ha]    energy [eV]    outer radius [A]
    2    1        -1.577621       -42.9293       3.541477

 
  O1                   hydrogenic:
 
  List of hydrogenic basis orbitals: 
    n    l      effective z      eigenvalue [eV]  inner max. [A]     outer max. [A]     outer radius [A]   
    2    1         1.800000       -11.0118           1.178562           1.178562           5.432602
    3    2         7.600000       -87.3182           0.624125           0.624125           3.541477
    3    0         6.400000       -61.9209           0.061167           1.081902           4.306578
    4    3        11.600000      -114.4238           0.731631           0.731631           3.585037
    3    1         6.200000       -58.1113           0.255680           1.030270           4.306578
    3    2         5.600000       -47.4081           0.847233           0.847233           4.413171
    5    4        17.600000      -168.5799           0.749740           0.749740           3.372465
    1    0         0.750000        -7.6499           0.705284           0.705284           5.366593
    4    3        10.800000       -99.1854           0.787313           0.787313           3.764702
    4    2         4.700000       -18.6841           0.758962           2.365807           5.499423
    2    0         6.800000      -157.2818           0.059689           0.406863           2.739620
    1    0        12.000000     -1959.2197           0.043971           0.043971           0.816724
    1    0        10.000000     -1360.5692           0.052821           0.052821           0.981101
    1    0         6.000000      -489.8049           0.088266           0.088266           1.561224
    2    0        10.000000      -340.1423           0.040365           0.278524           2.093567
    2    1         8.000000      -217.6911           0.265231           0.265231           2.365807
    2    1         6.000000      -122.4512           0.351348           0.351348           2.841960
    3    2         8.000000       -96.7515           0.594340           0.594340           3.455938
 
  Creating atomic-like basis functions for current effective potential.

  Species Ti                  :

  List of atomic basis orbitals and eigenvalues:
    n    l      energy [Ha]    energy [eV]    outer radius [A]
    1    0      -179.959082     -4896.9358       0.490254
    2    0       -19.727662      -536.8170       1.491292
    3    0        -2.283029       -62.1244       4.014314
    4    0        -0.148384        -4.0377       4.592117
    2    1       -16.317278      -444.0157       1.585290
    3    1        -1.409348       -38.3503       4.267343
    3    2        -0.139340        -3.7916       4.536321


  Species O                   :

  List of atomic basis orbitals and eigenvalues:
    n    l      energy [Ha]    energy [eV]    outer radius [A]
    1    0       -18.926989      -515.0296       1.415765
    2    0        -0.880247       -23.9527       4.413171
    2    1        -0.331514        -9.0210       4.522403


  Species O1                  :

  List of atomic basis orbitals and eigenvalues:
    n    l      energy [Ha]    energy [eV]    outer radius [A]
    1    0       -18.927378      -515.0401       1.415765
    2    0        -0.880539       -23.9607       5.048385
    2    1        -0.331811        -9.0290       5.301386

  Assembling full basis from fixed parts.
  | Species Ti :   atomic orbital   1 s accepted.
  | Species Ti :   atomic orbital   2 s accepted.
  | Species Ti :   atomic orbital   3 s accepted.
  | Species Ti :    ionic orbital   4 s accepted.
  | Species Ti :   atomic orbital   4 s accepted.
  | Species Ti :   atomic orbital   2 p accepted.
  | Species Ti :   atomic orbital   3 p accepted.
  | Species Ti :    ionic orbital   4 p accepted.
  | Species Ti :   atomic orbital   3 d accepted.
  | Species Ti :    hydro orbital   3 d accepted.
  | Species Ti :    hydro orbital   4 f accepted.
  | Species O :   atomic orbital   1 s accepted.
  | Species O :    hydro orbital   3 s accepted.
  | Species O :   atomic orbital   2 s accepted.
  | Species O :   atomic orbital   2 p accepted.
  | Species O :    hydro orbital   2 p accepted.
  | Species O :    hydro orbital   3 d accepted.
  | Species O1 :    hydro orbital   1 s accepted.
  | Species O1 :    hydro orbital   1 s accepted.
  | Species O1 :   atomic orbital   1 s accepted.
  | Species O1 :    hydro orbital   1 s accepted.
  | Species O1 :    hydro orbital   2 s accepted.
  | Species O1 :    hydro orbital   2 s accepted.
  | Species O1 :    hydro orbital   3 s accepted.
  | Species O1 :   atomic orbital   2 s accepted.
  | Species O1 :    hydro orbital   1 s accepted.
  | Species O1 :    hydro orbital   2 p accepted.
  | Species O1 :    hydro orbital   2 p accepted.
  | Species O1 :    ionic orbital   2 p accepted.
  | Species O1 :    hydro orbital   3 p accepted.
  | Species O1 :   atomic orbital   2 p accepted.
  | Species O1 :    hydro orbital   2 p accepted.
  | Species O1 :    hydro orbital   3 d accepted.
  | Species O1 :    hydro orbital   3 d accepted.
  | Species O1 :    hydro orbital   3 d accepted.
  | Species O1 :    hydro orbital   4 d accepted.
  | Species O1 :    hydro orbital   4 f accepted.
  | Species O1 :    hydro orbital   4 f accepted.
  | Species O1 :    hydro orbital   5 g accepted.
 
  Basis size parameters after reduction:
  | Total number of radial functions:       39
  | Total number of basis functions :      292
 
  Per-task memory consumption for arrays in subroutine allocate_ext:
  |          10.366508MB.
  Testing on-site integration grid accuracy.
  |  Species  Function  <phi|h_atom|phi> (log., in eV)  <phi|h_atom|phi> (rad., in eV)
           1        1              -4896.9357674450              -4896.9322838106
           1        2               -536.8170048508               -536.8169722776
           1        3                -62.1243896260                -62.1243889401
           1        4                 -3.2653235630                 -3.2692838824
           1        5                  6.7987747276                  6.5460721871 ***
           1        6               -444.0157161949               -444.0157165643
           1        7                -38.3503235548                -38.3503234985
           1        8                  0.2923930877                  0.2745948114
           1        9                 -3.7933400649                 -3.7959244171
           1       10                  6.3288803616                  6.2510614935 ***
           1       11                 27.8451455747                 27.8452636415
           2       12               -515.0295626295               -515.0294562869
           2       13                 15.1698434419                 15.1699322205
           2       14                -21.6038822678                -21.6039118108
           2       15                 -9.0211123393                 -9.0212703513
           2       16                  8.3047696391                  8.2854840999
           2       17                 45.8428042125                 45.8427461223
           3       18               -272.9322507263               -272.9201921991
           3       19               1665.9089384428               1665.9689460231 ***
           3       20               2095.2037268945               2095.2740317228 ***
           3       21               3047.3679718515               3047.0126722257 ***
           3       22               3234.6000205573               3231.5687072350 ***
           3       23               2428.4660356492               2422.2375592442 ***
           3       24                896.7802862158                893.3913916184 ***
           3       25               3128.2108268826               3108.2674940926 ***
           3       26                 71.8616615187                 71.1575836879 ***
           3       27                 15.4122562036                 15.4122564509
           3       28                101.7989356251                101.7989355629
           3       29                121.1064459338                121.1064460850
           3       30                271.5759585347                271.5759823152
           3       31                159.3966255928                159.3962927971
           3       32                153.6473243407                153.6504704040
           3       33                 50.7421815376                 50.7421815945
           3       34                 88.5010368311                 88.5010331057
           3       35                 82.9872957917                 82.9873669217
           3       36                 36.7418806245                 36.7419113217
           3       37                 85.4133898762                 85.4133899074
           3       38                115.1018427582                115.1018451832
           3       39                142.1023296234                142.1023296272
 * Note: Onsite integrals marked "***" above are less accurate than
 * onsite_accuracy_threshold =    0.03000 eV. Usually, this is harmless.
 * When in doubt, tighten the "radial" and/or "radial_multiplier" flags to check.

  Preparing densities etc. for the partition functions (integrals / Hartree potential).

  Preparations completed.
  max(cpu_time)          :      0.542 s.
  Wall clock time (cpu1) :      0.540 s.
------------------------------------------------------------
  After prepare_scf [GB]:   1004.84

  Initializing index lists of integration centers etc. from given atomic structure:
  Mapping all atomic coordinates to central unit cell.

  Initializing the k-points
  Using symmetry for reducing the k-points
  | k-points reduced from:       64 to       36
  | Number of k-points                             :        36
  The eigenvectors in the calculations are COMPLEX.
  | K-points in task   0:         1
  | K-points in task   1:         2
  | K-points in task   2:         2
  | K-points in task   3:         2
  | K-points in task   4:         2
  | K-points in task   5:         1
  | K-points in task   6:         1
  | K-points in task   7:         1
  | K-points in task   8:         1
  | K-points in task   9:         1
  | K-points in task  10:         1
  | K-points in task  11:         1
  | K-points in task  12:         1
  | K-points in task  13:         1
  | K-points in task  14:         1
  | K-points in task  15:         1
  | K-points in task  16:         1
  | K-points in task  17:         1
  | K-points in task  18:         1
  | K-points in task  19:         1
  | K-points in task  20:         1
  | K-points in task  21:         1
  | K-points in task  22:         1
  | K-points in task  23:         1
  | K-points in task  24:         1
  | K-points in task  25:         1
  | K-points in task  26:         1
  | K-points in task  27:         1
  | K-points in task  28:         1
  | K-points in task  29:         1
  | K-points in task  30:         1
  | K-points in task  31:         1
  | Number of basis functions in the Hamiltonian integrals :      4566
  | Number of basis functions in a single unit cell        :       292
  | Number of centers in hartree potential         :      1370
  | Number of centers in hartree multipole         :       661
  | Number of centers in electron density summation:       531
  | Number of centers in basis integrals           :       556
  | Number of centers in integrals                 :       232
  | Number of centers in hamiltonian               :       643
  | Consuming         63 KiB for k_phase.
  | Number of super-cells (origin) [n_cells]                     :         675
  | Number of super-cells (after PM_index) [n_cells]             :         112
  | Number of super-cells in hamiltonian [n_cells_in_hamiltonian]:         112
  | Size of matrix packed + index [n_hamiltonian_matrix_size] :      435423
  After initialize_bc_dependent_lists [GB]:   1004.83

------------------------------------------------------------
          Begin self-consistency loop: Initialization.

          Date     :  20241013, Time     :  114018.548
------------------------------------------------------------
  Available memory per node after initialize_hartree_non_periodic_ewald [GB]:   1004.83
  | Estimated reciprocal-space cutoff momentum G_max:         1.98229608 bohr^-1 .
  | Reciprocal lattice points for long-range Hartree potential:     386
  Available memory per node after initialize_recip_hartree_potential [GB]:   1004.83
  Available memory per node after initialize_scalapack [GB]:   1004.83
  Available memory per node after aims_elsi_init_scf [GB]:   1004.83
  Available memory per node after initialize_fixed_grids [GB]:   1004.83
  Partitioning the integration grid into batches with parallel hashing+maxmin method.
  | Number of batches:     1002
  | Maximal batch size:     182
  | Minimal batch size:       3
  | Average batch size:      90.170
  | Standard deviation of batch sizes:      30.504

  Integration load balanced across    32 MPI tasks.
  Work distribution over tasks is as follows:
  Task     0 has       2853 integration points.
  Task     1 has       2848 integration points.
  Task     2 has       2786 integration points.
  Task     3 has       2793 integration points.
  Task     4 has       2862 integration points.
  Task     5 has       2796 integration points.
  Task     6 has       2795 integration points.
  Task     7 has       2842 integration points.
  Task     8 has       2850 integration points.
  Task     9 has       2799 integration points.
  Task    10 has       2841 integration points.
  Task    11 has       2844 integration points.
  Task    12 has       2796 integration points.
  Task    13 has       2799 integration points.
  Task    14 has       2792 integration points.
  Task    15 has       2847 integration points.
  Task    16 has       2844 integration points.
  Task    17 has       2850 integration points.
  Task    18 has       2794 integration points.
  Task    19 has       2807 integration points.
  Task    20 has       2850 integration points.
  Task    21 has       2854 integration points.
  Task    22 has       2797 integration points.
  Task    23 has       2808 integration points.
  Task    24 has       2847 integration points.
  Task    25 has       2817 integration points.
  Task    26 has       2855 integration points.
  Task    27 has       2802 integration points.
  Task    28 has       2855 integration points.
  Task    29 has       2799 integration points.
  Task    30 has       2798 integration points.
  Task    31 has       2830 integration points.
  Available memory per node after partition_grid [GB]:   1004.84
  Initializing partition tables, free-atom densities, potentials, etc. across the integration grid (initialize_grid_storage).
  | initialize_grid_storage: Actual outermost partition radius vs. multipole_radius_free
  | (-- VB: in principle, multipole_radius_free should be larger, hence this output)
  | Species        1: Confinement radius =              4.999999999999999 AA, multipole_radius_free =              5.002391649902235 AA.
  | Species        1: outer_partition_radius set to              5.002391649902235 AA .
  | Species        2: Confinement radius =              4.999999999999999 AA, multipole_radius_free =              5.048384829883283 AA.
  | Species        2: outer_partition_radius set to              5.048384829883283 AA .
  | Species        3: Confinement radius =              6.000000000000000 AA, multipole_radius_free =              6.064445521808699 AA.
  | Species        3: outer_partition_radius set to              6.064445521808699 AA .
  | The sparse table of interatomic distances needs       1603.53 kbyte instead of      2473.09 kbyte of memory.
  | Net number of integration points:    90350
  | of which are non-zero points    :    73803
  | Numerical average free-atom electrostatic potential    :     -5.20621974 eV
  Available memory per node after initialize_grid_storage_p1 [GB]:   1004.83
  Renormalizing the initial density to the exact electron count on the 3D integration grid.
  | Initial density: Formal number of electrons (from input files) :     152.0000000000
  | Integrated number of electrons on 3D grid     :     151.9997712070
  | Charge integration error                      :      -0.0002287930
  | Normalization factor for density and gradient :       1.0000015052
  Renormalizing the free-atom superposition density to the exact electron count on the 3D integration grid.
  | Formal number of electrons (from input files) :     151.0000000000
  | Integrated number of electrons on 3D grid     :     151.9997712070
  | Charge integration error                      :      -0.0002287930
  | Normalization factor for density and gradient :       1.0000015052
  Obtaining max. number of non-zero basis functions in each batch (get_n_compute_maxes).
  | Maximal number of non-zero basis functions:      904 in task     0
  | Maximal number of non-zero basis functions:      919 in task     1
  | Maximal number of non-zero basis functions:      842 in task     2
  | Maximal number of non-zero basis functions:      914 in task     3
  | Maximal number of non-zero basis functions:      865 in task     4
  | Maximal number of non-zero basis functions:      861 in task     5
  | Maximal number of non-zero basis functions:      837 in task     6
  | Maximal number of non-zero basis functions:      864 in task     7
  | Maximal number of non-zero basis functions:      843 in task     8
  | Maximal number of non-zero basis functions:      930 in task     9
  | Maximal number of non-zero basis functions:      937 in task    10
  | Maximal number of non-zero basis functions:      920 in task    11
  | Maximal number of non-zero basis functions:      868 in task    12
  | Maximal number of non-zero basis functions:      947 in task    13
  | Maximal number of non-zero basis functions:      926 in task    14
  | Maximal number of non-zero basis functions:      865 in task    15
  | Maximal number of non-zero basis functions:      855 in task    16
  | Maximal number of non-zero basis functions:      845 in task    17
  | Maximal number of non-zero basis functions:      858 in task    18
  | Maximal number of non-zero basis functions:      898 in task    19
  | Maximal number of non-zero basis functions:      862 in task    20
  | Maximal number of non-zero basis functions:      840 in task    21
  | Maximal number of non-zero basis functions:      842 in task    22
  | Maximal number of non-zero basis functions:      859 in task    23
  | Maximal number of non-zero basis functions:      852 in task    24
  | Maximal number of non-zero basis functions:      849 in task    25
  | Maximal number of non-zero basis functions:      848 in task    26
  | Maximal number of non-zero basis functions:      904 in task    27
  | Maximal number of non-zero basis functions:      956 in task    28
  | Maximal number of non-zero basis functions:      945 in task    29
  | Maximal number of non-zero basis functions:      879 in task    30
  | Maximal number of non-zero basis functions:      851 in task    31
  Available memory per node after get_n_compute_maxes_p1 [GB]:   1004.83
  Allocating        1.087 MB for KS_eigenvector_complex
  Available memory per node after allocate_matrices [GB]:   1004.82
  Available memory per node after init_comm_sparse_local_matrix_scalapack [GB]:   1004.82
  Integrating Hamiltonian matrix: batch-based integration.
  Time summed over all CPUs for integration: real work       25.499 s, elapsed       30.760 s
  Available memory per node after integrate hamiltonian matrix [GB]:   1004.46
  Integrating overlap matrix.
  Time summed over all CPUs for integration: real work        4.441 s, elapsed        5.494 s
  Available memory per node after integrate ovlp matrix [GB]:   1004.21
  Available memory per node after ASI_callbacks invoke [GB]:   1004.21
  Available memory per node after save_overlap_scalapack [GB]:   1004.21

  Reading periodic restart information from file restart000
  Available memory per node after advance_KS_solution [GB]:   1004.21
  Writing Kohn-Sham eigenvalues.

  Spin-up eigenvalues:
  K-point:       1 at    0.000000    0.000000    0.000000 (in units of recip. lattice)

  State    Occupation    Eigenvalue [Ha]    Eigenvalue [eV]
      1       1.00000        -180.091023        -4900.52607
      2       1.00000        -180.088227        -4900.45000
      3       1.00000        -180.041196        -4899.17022
      4       1.00000        -180.038395        -4899.09399
      5       1.00000         -19.885220         -541.10437
      6       1.00000         -19.881779         -541.01072
      7       1.00000         -19.839741         -539.86682
      8       1.00000         -19.835734         -539.75779
      9       1.00000         -19.380889         -527.38083
     10       1.00000         -18.870302         -513.48704
     11       1.00000         -18.870302         -513.48703
     12       1.00000         -18.869000         -513.45161
     13       1.00000         -18.868999         -513.45160
     14       1.00000         -18.855473         -513.08354
     15       1.00000         -18.814667         -511.97314
     16       1.00000         -18.811511         -511.88726
     17       1.00000         -16.474148         -448.28439
     18       1.00000         -16.473306         -448.26147
     19       1.00000         -16.473161         -448.25751
     20       1.00000         -16.470552         -448.18652
     21       1.00000         -16.470099         -448.17420
     22       1.00000         -16.469863         -448.16779
     23       1.00000         -16.428723         -447.04831
     24       1.00000         -16.427503         -447.01509
     25       1.00000         -16.426812         -446.99630
     26       1.00000         -16.424997         -446.94691
     27       1.00000         -16.423555         -446.90766
     28       1.00000         -16.422867         -446.88896
     29       1.00000          -2.419222          -65.83038
     30       1.00000          -2.415907          -65.74017
     31       1.00000          -2.373729          -64.59245
     32       1.00000          -2.369585          -64.47970
     33       1.00000          -1.546244          -42.07544
     34       1.00000          -1.545735          -42.06160
     35       1.00000          -1.542866          -41.98352
     36       1.00000          -1.542228          -41.96616
     37       1.00000          -1.539649          -41.89599
     38       1.00000          -1.536950          -41.82253
     39       1.00000          -1.503598          -40.91499
     40       1.00000          -1.500565          -40.83245
     41       1.00000          -1.499999          -40.81706
     42       1.00000          -1.496286          -40.71602
     43       1.00000          -1.493305          -40.63489
     44       1.00000          -1.489124          -40.52113
     45       1.00000          -0.972619          -26.46632
     46       1.00000          -0.961950          -26.17600
     47       1.00000          -0.947887          -25.79332
     48       1.00000          -0.926113          -25.20083
     49       1.00000          -0.919961          -25.03340
     50       1.00000          -0.917670          -24.97106
     51       1.00000          -0.860212          -23.40757
     52       1.00000          -0.856141          -23.29677
     53       1.00000          -0.516551          -14.05607
     54       1.00000          -0.515374          -14.02404
     55       1.00000          -0.473187          -12.87606
     56       1.00000          -0.466547          -12.69540
     57       1.00000          -0.464671          -12.64433
     58       1.00000          -0.458980          -12.48948
     59       1.00000          -0.457293          -12.44358
     60       1.00000          -0.428513          -11.66043
     61       1.00000          -0.418097          -11.37699
     62       1.00000          -0.414641          -11.28295
     63       1.00000          -0.401061          -10.91342
     64       1.00000          -0.399423          -10.86885
     65       1.00000          -0.390322          -10.62120
     66       1.00000          -0.386286          -10.51137
     67       1.00000          -0.369514          -10.05499
     68       1.00000          -0.366776           -9.98047
     69       1.00000          -0.359153           -9.77304
     70       1.00000          -0.338238           -9.20392
     71       1.00000          -0.332821           -9.05652
     72       1.00000          -0.327375           -8.90832
     73       1.00000          -0.320006           -8.70780
     74       1.00000          -0.313345           -8.52655
     75       0.00000          -0.305707           -8.31870
     76       0.00000          -0.301821           -8.21298
     77       0.00000          -0.248996           -6.77552
     78       0.00000          -0.247002           -6.72128
     79       0.00000          -0.231115           -6.28896
     80       0.00000           0.000000            0.00000
     81       0.00000           0.000000            0.00000
     82       0.00000           0.000000            0.00000
     83       0.00000           0.000000            0.00000
     84       0.00000           0.000000            0.00000
     85       0.00000           0.000000            0.00000
     86       0.00000           0.000000            0.00000
     87       0.00000           0.000000            0.00000
     88       0.00000           0.000000            0.00000
     89       0.00000           0.000000            0.00000
     90       0.00000           0.000000            0.00000
     91       0.00000           0.000000            0.00000
     92       0.00000           0.000000            0.00000
     93       0.00000           0.000000            0.00000
     94       0.00000           0.000000            0.00000
     95       0.00000           0.000000            0.00000
     96       0.00000           0.000000            0.00000
     97       0.00000           0.000000            0.00000
     98       0.00000           0.000000            0.00000
     99       0.00000           0.000000            0.00000
    100       0.00000           0.000000            0.00000
    101       0.00000           0.000000            0.00000
    102       0.00000           0.000000            0.00000
    103       0.00000           0.000000            0.00000
    104       0.00000           0.000000            0.00000
    105       0.00000           0.000000            0.00000
    106       0.00000           0.000000            0.00000
    107       0.00000           0.000000            0.00000
    108       0.00000           0.000000            0.00000
    109       0.00000           0.000000            0.00000
    110       0.00000           0.000000            0.00000
    111       0.00000           0.000000            0.00000
    112       0.00000           0.000000            0.00000
    113       0.00000           0.000000            0.00000
    114       0.00000           0.000000            0.00000
    115       0.00000           0.000000            0.00000
    116       0.00000           0.000000            0.00000
    117       0.00000           0.000000            0.00000
    118       0.00000           0.000000            0.00000
    119       0.00000           0.000000            0.00000
    120       0.00000           0.000000            0.00000
    121       0.00000           0.000000            0.00000
    122       0.00000           0.000000            0.00000

  Spin-down eigenvalues:
  K-point:       1 at    0.000000    0.000000    0.000000 (in units of recip. lattice)

  State    Occupation    Eigenvalue [Ha]    Eigenvalue [eV]
      1       1.00000        -180.091023        -4900.52607
      2       1.00000        -180.088227        -4900.45000
      3       1.00000        -180.041196        -4899.17022
      4       1.00000        -180.038395        -4899.09399
      5       1.00000         -19.885220         -541.10437
      6       1.00000         -19.881779         -541.01072
      7       1.00000         -19.839741         -539.86682
      8       1.00000         -19.835734         -539.75779
      9       1.00000         -19.380889         -527.38083
     10       1.00000         -18.870302         -513.48704
     11       1.00000         -18.870302         -513.48703
     12       1.00000         -18.869000         -513.45161
     13       1.00000         -18.868999         -513.45160
     14       1.00000         -18.855473         -513.08354
     15       1.00000         -18.814667         -511.97314
     16       1.00000         -18.811511         -511.88726
     17       1.00000         -16.474148         -448.28439
     18       1.00000         -16.473306         -448.26147
     19       1.00000         -16.473161         -448.25751
     20       1.00000         -16.470552         -448.18652
     21       1.00000         -16.470099         -448.17420
     22       1.00000         -16.469863         -448.16779
     23       1.00000         -16.428723         -447.04831
     24       1.00000         -16.427503         -447.01509
     25       1.00000         -16.426812         -446.99630
     26       1.00000         -16.424997         -446.94691
     27       1.00000         -16.423555         -446.90766
     28       1.00000         -16.422867         -446.88896
     29       1.00000          -2.419222          -65.83038
     30       1.00000          -2.415907          -65.74017
     31       1.00000          -2.373729          -64.59245
     32       1.00000          -2.369585          -64.47970
     33       1.00000          -1.546244          -42.07544
     34       1.00000          -1.545735          -42.06160
     35       1.00000          -1.542866          -41.98352
     36       1.00000          -1.542228          -41.96616
     37       1.00000          -1.539649          -41.89599
     38       1.00000          -1.536950          -41.82253
     39       1.00000          -1.503598          -40.91499
     40       1.00000          -1.500565          -40.83245
     41       1.00000          -1.499999          -40.81706
     42       1.00000          -1.496286          -40.71602
     43       1.00000          -1.493305          -40.63489
     44       1.00000          -1.489124          -40.52113
     45       1.00000          -0.972619          -26.46632
     46       1.00000          -0.961950          -26.17600
     47       1.00000          -0.947887          -25.79332
     48       1.00000          -0.926113          -25.20083
     49       1.00000          -0.919961          -25.03340
     50       1.00000          -0.917670          -24.97106
     51       1.00000          -0.860212          -23.40757
     52       1.00000          -0.856141          -23.29677
     53       1.00000          -0.516551          -14.05607
     54       1.00000          -0.515374          -14.02404
     55       1.00000          -0.473187          -12.87606
     56       1.00000          -0.466547          -12.69540
     57       1.00000          -0.464671          -12.64433
     58       1.00000          -0.458980          -12.48948
     59       1.00000          -0.457293          -12.44358
     60       1.00000          -0.428513          -11.66043
     61       1.00000          -0.418097          -11.37699
     62       1.00000          -0.414641          -11.28295
     63       1.00000          -0.401061          -10.91342
     64       1.00000          -0.399423          -10.86885
     65       1.00000          -0.390322          -10.62120
     66       1.00000          -0.386286          -10.51137
     67       1.00000          -0.369514          -10.05499
     68       1.00000          -0.366776           -9.98047
     69       1.00000          -0.359153           -9.77304
     70       1.00000          -0.338238           -9.20392
     71       1.00000          -0.332821           -9.05652
     72       1.00000          -0.327375           -8.90832
     73       1.00000          -0.320006           -8.70780
     74       1.00000          -0.313345           -8.52655
     75       0.00000          -0.305707           -8.31870
     76       0.00000          -0.301821           -8.21298
     77       0.00000          -0.248996           -6.77552
     78       0.00000          -0.247002           -6.72128
     79       0.00000          -0.231115           -6.28896
     80       0.00000           0.000000            0.00000
     81       0.00000           0.000000            0.00000
     82       0.00000           0.000000            0.00000
     83       0.00000           0.000000            0.00000
     84       0.00000           0.000000            0.00000
     85       0.00000           0.000000            0.00000
     86       0.00000           0.000000            0.00000
     87       0.00000           0.000000            0.00000
     88       0.00000           0.000000            0.00000
     89       0.00000           0.000000            0.00000
     90       0.00000           0.000000            0.00000
     91       0.00000           0.000000            0.00000
     92       0.00000           0.000000            0.00000
     93       0.00000           0.000000            0.00000
     94       0.00000           0.000000            0.00000
     95       0.00000           0.000000            0.00000
     96       0.00000           0.000000            0.00000
     97       0.00000           0.000000            0.00000
     98       0.00000           0.000000            0.00000
     99       0.00000           0.000000            0.00000
    100       0.00000           0.000000            0.00000
    101       0.00000           0.000000            0.00000
    102       0.00000           0.000000            0.00000
    103       0.00000           0.000000            0.00000
    104       0.00000           0.000000            0.00000
    105       0.00000           0.000000            0.00000
    106       0.00000           0.000000            0.00000
    107       0.00000           0.000000            0.00000
    108       0.00000           0.000000            0.00000
    109       0.00000           0.000000            0.00000
    110       0.00000           0.000000            0.00000
    111       0.00000           0.000000            0.00000
    112       0.00000           0.000000            0.00000
    113       0.00000           0.000000            0.00000
    114       0.00000           0.000000            0.00000
    115       0.00000           0.000000            0.00000
    116       0.00000           0.000000            0.00000
    117       0.00000           0.000000            0.00000
    118       0.00000           0.000000            0.00000
    119       0.00000           0.000000            0.00000
    120       0.00000           0.000000            0.00000
    121       0.00000           0.000000            0.00000
    122       0.00000           0.000000            0.00000

  Current spin moment of the entire structure :
  | N = N_up - N_down (sum over all k points):         0.00000
  | S (sum over all k points)                :         0.00000

  What follows are estimated values for band gap, HOMO, LUMO, etc.
  | They are estimated on a discrete k-point grid and not necessarily exact.
  | For converged numbers, create a DOS and/or band structure plot on a denser k-grid.

  Highest occupied state (VBM) at     -8.37179866 eV (relative to internal zero)
  | Occupation number:      0.75979727
  | K-point:      32 at    0.500000    0.875000    0.500000 (in units of recip. lattice)
  | Spin channel:        2

  Lowest unoccupied state (CBM) at    -8.36309548 eV (relative to internal zero)
  | Occupation number:      0.29973438
  | K-point:      33 at    0.750000    0.125000    0.500000 (in units of recip. lattice)
  | Spin channel:        2

  ESTIMATED overall HOMO-LUMO gap:      0.00870318 eV between HOMO at k-point 32 and LUMO at k-point 33
[...]
     29       1.00000          -2.660535          -72.39685
     30       1.00000          -2.634155          -71.67899
     31       1.00000          -2.615832          -71.18041
     32       1.00000          -2.575188          -70.07443
     33       1.00000          -1.791643          -48.75308
     34       1.00000          -1.785231          -48.57861
     35       1.00000          -1.778918          -48.40683
     36       1.00000          -1.762075          -47.94851
     37       1.00000          -1.758589          -47.85364
     38       1.00000          -1.755952          -47.78189
     39       1.00000          -1.746853          -47.53428
     40       1.00000          -1.742837          -47.42500
     41       1.00000          -1.737062          -47.26787
     42       1.00000          -1.708160          -46.48140
     43       1.00000          -1.701740          -46.30670
     44       1.00000          -1.694141          -46.09993
     45       1.00000          -1.362895          -37.08626
     46       1.00000          -1.194522          -32.50460
     47       1.00000          -1.183182          -32.19601
     48       1.00000          -1.149363          -31.27576
     49       1.00000          -1.141508          -31.06201
     50       1.00000          -1.139075          -30.99580
     51       1.00000          -1.092578          -29.73057
     52       1.00000          -1.058925          -28.81480
     53       1.00000          -0.849557          -23.11763
     54       1.00000          -0.822672          -22.38605
     55       1.00000          -0.804285          -21.88571
     56       1.00000          -0.744807          -20.26724
     57       1.00000          -0.738046          -20.08326
     58       1.00000          -0.690879          -18.79977
     59       1.00000          -0.678119          -18.45255
     60       1.00000          -0.676446          -18.40704
     61       1.00000          -0.663010          -18.04142
     62       1.00000          -0.635458          -17.29170
     63       1.00000          -0.629889          -17.14014
     64       1.00000          -0.627826          -17.08402
     65       1.00000          -0.614795          -16.72942
     66       1.00000          -0.603915          -16.43338
     67       1.00000          -0.600769          -16.34776
     68       1.00000          -0.597994          -16.27225
     69       1.00000          -0.590044          -16.05592
     70       1.00000          -0.580060          -15.78424
     71       1.00000          -0.570789          -15.53195
     72       1.00000          -0.566603          -15.41806
     73       1.00000          -0.526956          -14.33921
     74       1.00000          -0.526257          -14.32018
     75       1.00000          -0.519336          -14.13186
     76       1.00000          -0.513748          -13.97980
     77       0.00000          -0.485265          -13.20473
     78       0.00000          -0.476133          -12.95624
     79       0.00000          -0.469063          -12.76385
     80       0.00000          -0.445360          -12.11886
     81       0.00000          -0.442367          -12.03741
     82       0.00000          -0.440967          -11.99933
     83       0.00000          -0.437991          -11.91835
     84       0.00000          -0.430312          -11.70939
     85       0.00000          -0.427775          -11.64035
     86       0.00000          -0.408003          -11.10232
     87       0.00000          -0.404325          -11.00223
     88       0.00000          -0.388762          -10.57874
     89       0.00000          -0.376027          -10.23220
     90       0.00000          -0.353135           -9.60929
     91       0.00000          -0.320712           -8.72701
     92       0.00000          -0.313300           -8.52534
     93       0.00000          -0.312269           -8.49726
     94       0.00000          -0.302386           -8.22834
     95       0.00000          -0.298509           -8.12285
     96       0.00000          -0.254676           -6.93009
     97       0.00000          -0.248234           -6.75479
     98       0.00000          -0.227499           -6.19055
     99       0.00000          -0.175379           -4.77230
    100       0.00000          -0.146458           -3.98533
    101       0.00000          -0.107684           -2.93023
    102       0.00000          -0.101706           -2.76757
    103       0.00000          -0.064458           -1.75399
    104       0.00000          -0.049665           -1.35144
    105       0.00000          -0.010222           -0.27815
    106       0.00000          -0.001592           -0.04331
    107       0.00000           0.031848            0.86663
    108       0.00000           0.060880            1.65663
    109       0.00000           0.062610            1.70369
    110       0.00000           0.104912            2.85481
    111       0.00000           0.116029            3.15732
    112       0.00000           0.162708            4.42752
    113       0.00000           0.185296            5.04216
    114       0.00000           0.185858            5.05744
    115       0.00000           0.187744            5.10877
    116       0.00000           0.205181            5.58325
    117       0.00000           0.222803            6.06277
    118       0.00000           0.237536            6.46368
    119       0.00000           0.238750            6.49672
    120       0.00000           0.249814            6.79777
    121       0.00000           0.262945            7.15511
    122       0.00000           0.273445            7.44081

  Current spin moment of the entire structure :
  | N = N_up - N_down (sum over all k points):         1.00000
  | S (sum over all k points)                :         0.50000

  What follows are estimated values for band gap, HOMO, LUMO, etc.
  | They are estimated on a discrete k-point grid and not necessarily exact.
  | For converged numbers, create a DOS and/or band structure plot on a denser k-grid.

  Highest occupied state (VBM) at    -13.87527743 eV (relative to internal zero)
  | Occupation number:      1.00000000
  | K-point:      26 at    0.500000    0.250000    0.000000 (in units of recip. lattice)
  | Spin channel:        2

  Lowest unoccupied state (CBM) at  -552.45078748 eV (relative to internal zero)
  | Occupation number:      0.00000000
  | K-point:      29 at    0.500000    0.500000    0.000000 (in units of recip. lattice)
  | Spin channel:        1

  ESTIMATED overall HOMO-LUMO gap:   -538.57551005 eV between HOMO at k-point 26 and LUMO at k-point 29
  | This appears to be an indirect band gap.
  | Smallest direct gap :   -538.57549546 eV for k_point 26 at    0.500000    0.250000    0.000000 (in units of recip. lattice)
  | Direct gap HOMO spin channel :     2
  | Direct gap LUMO spin channel :     1
  However, the gap value is rather small. Since we use a finite k-point grid,
  this material is most likely metallic (in the sense that there are states
  at or near the Fermi level). A DOS and/or band structure plot is required
  for an unambiguous distinction.

  Total energy components:
  | Sum of eigenvalues            :       -2394.70470556 Ha      -65163.23050703 eV
  | XC energy correction          :        -235.48987551 Ha       -6408.00554838 eV
  | XC potential correction       :         304.50056085 Ha        8285.88184182 eV
  | Free-atom electrostatic energy:       -1711.23391751 Ha      -46565.04409879 eV
  | Hartree energy correction     :          38.86437476 Ha        1057.55344499 eV
  | Entropy correction            :          -0.00010651 Ha          -0.00289828 eV
  | ---------------------------
  | Total energy                  :       -3998.06356297 Ha     -108792.84486739 eV
  | Total energy, T -> 0          :       -3998.06366948 Ha     -108792.84776567 eV  <-- do not rely on this value for anything but (periodic) metals
  | Electronic free energy        :       -3998.06377599 Ha     -108792.85066396 eV

  Derived energy quantities:
  | Kinetic energy                :        4044.93537603 Ha      110068.29179488 eV
  | Electrostatic energy          :       -7807.50906349 Ha     -212453.13111389 eV
  | Energy correction for multipole
  | error in Hartree potential    :           0.03524101 Ha           0.95895680 eV
  | Sum of eigenvalues per atom                           :       -5430.26920892 eV
  | Total energy (T->0) per atom                          :       -9066.07064714 eV  <-- do not rely on this value for anything but (periodic) metals
  | Electronic free energy per atom                       :       -9066.07088866 eV
  End evaluation of scaled ZORA corrections.
  | Time for scaled ZORA corrections            :        1.292 s           1.292 s
------------------------------------------------------------

  Energy and forces in a compact form:
  | Total energy uncorrected      :         -0.108792844867390E+06 eV
  | Total energy corrected        :         -0.108792847765673E+06 eV  <-- do not rely on this value for anything but (periodic) metals
  | Electronic free energy        :         -0.108792850663956E+06 eV

  ------------------------------------ 
  Start decomposition of the XC Energy 
  ------------------------------------ 
  X and C from original XC functional choice 
  Hartree-Fock Energy :          0.000000000 Ha              0.000000000 eV
  X Energy            :       -229.551289432 Ha          -6246.408399195 eV
  C Energy            :         -5.938586079 Ha           -161.597149186 eV
  XC Energy w/o HF    :       -235.489875511 Ha          -6408.005548382 eV
  Total XC Energy     :       -235.489875511 Ha          -6408.005548382 eV
  ------------------------------------ 
  LDA X and C from self-consistent density 
  X Energy LDA        :       -213.109227361 Ha          -5798.997126208 eV
  C Energy LDA        :        -11.627845029 Ha           -316.409762000 eV
  ------------------------------------ 
  End decomposition of the XC Energy 
  ------------------------------------ 

------------------------------------------------------------

  ------------------------------------------------------------
                   Starting Mulliken Analysis
  ------------------------------------------------------------

  Performing Mulliken charge analysis on all atoms.
  Full analysis will be written to separate file 'Mulliken.out'.
  Summary of the per-atom charge analysis:
  |
  |  atom       electrons          charge             l=0             l=1             l=2             l=3             l=4
  |     1        8.266602       -0.266602        3.898204        4.355151        0.013246
  |     2        8.630206       -0.630206        3.861011        4.758214        0.010981
  |     3       20.958782        1.041218        6.302290       12.549652        1.992911        0.113930
  |     4       20.983786        1.016214        6.059067       12.515236        2.267600        0.141883
  |     5        8.630212       -0.630212        3.861010        4.758221        0.010981
  |     6        8.618373       -0.618373        3.831054        4.776338        0.010982
  |     7        7.115194        0.884806        2.666119        4.905356       -0.464330        0.007272        0.000777
  |     8        8.680562       -0.680562        3.853893        4.816877        0.009793
  |     9       20.749774        1.250226        6.122182       12.441736        2.065897        0.119958
  |    10       21.457603        0.542397        6.331257       12.698603        2.298137        0.129607
  |    11        8.680556       -0.680556        3.853894        4.816869        0.009793
  |    12        8.228350       -0.228350        3.898675        4.315710        0.013965
  |
  | Total      151.000000        1.000000
 
  Summary of the per-atom spin analysis:
  |
  |  atom   spin      l=0         l=1         l=2         l=3         l=4
  |     1    0.001765    0.000022    0.001741    0.000001
  |     2    0.001852    0.000102    0.001728    0.000023
  |     3    0.020785    0.002441    0.001770    0.016012    0.000562
  |     4   -0.000471   -0.000057   -0.000064   -0.000378    0.000027
  |     5    0.001853    0.000102    0.001728    0.000023
  |     6    0.000683    0.000033    0.000650   -0.000000
  |     7   -1.056929   -1.003723   -0.053504   -0.000191    0.000455    0.000035
  |     8    0.000998    0.000074    0.000886    0.000038
  |     9    0.000703   -0.000119    0.000058    0.000724    0.000040
  |    10    0.021118    0.000810    0.005877    0.013013    0.001418
  |    11    0.000998    0.000074    0.000886    0.000038
  |    12    0.006646    0.000218    0.006433   -0.000005
  |
  | Total   -1.000000
 
  Writing Mulliken decomposition to disk ...

  Mulliken analysis                                       :  max(cpu_time)    wall_clock(cpu1)
  | Time for Mulliken analysis                            :          1.344               1.344
  | Total time for Mulliken analysis                      :          1.344               1.344
------------------------------------------------------------

------------------------------------------------------------------------------
  Final output of selected total energy values:

  The following output summarizes some interesting total energy values
  at the end of a run (AFTER all relaxation, molecular dynamics, etc.).

  | Total energy of the DFT / Hartree-Fock s.c.f. calculation      :        -108792.844867390 eV
  | Final zero-broadening corrected energy (caution - metals only) :        -108792.847765673 eV
  | For reference only, the value of 1 Hartree used in FHI-aims is :             27.211384500 eV
  | For reference only, the overall average (free atom contribution
  | + realspace contribution) of the electrostatic potential after
  | s.c.f. convergence is                                          :             -5.582192974 eV

  Before relying on these values, please be sure to understand exactly which
  total energy value is referred to by a given number. Different objects may
  all carry the same name 'total energy'. Definitions:

  Total energy of the DFT / Hartree-Fock s.c.f. calculation:
  | Note that this energy does not include ANY quantities calculated after the
  | s.c.f. cycle, in particular not ANY RPA, MP2, etc. many-body perturbation terms.
  | Scalar relativistic effects have been included in the 'scaled ZORA' approximation.

  Final zero-broadening corrected energy:
  | For metallic systems only, a broadening of the occupation numbers at the Fermi
  | level can be extrapolated back to zero broadening by an electron-gas inspired
  | formula. For all systems that are not real metals, this value can be
  | meaningless and should be avoided.

------------------------------------------------------------------------------
  Methods described in the following list of references were used in this FHI-aims run.
  If you publish the results, please make sure to cite these reference if they apply.
  FHI-aims is an academic code, and for our developers (often, Ph.D. students
  and postdocs), scientific credit in the community is essential.
  Thank you for helping us!

  For any use of FHI-aims, please cite:

    Volker Blum, Ralf Gehrke, Felix Hanke, Paula Havu, Ville Havu,
    Xinguo Ren, Karsten Reuter, and Matthias Scheffler
    'Ab initio molecular simulations with numeric atom-centered orbitals'
    Computer Physics Communications 180, 2175-2196 (2009)
    http://doi.org/10.1016/j.cpc.2009.06.022


  The provided symmetry information was generated with SPGlib:

    Atsushi Togo, Yusuke Seto, Dimitar Pashov
    SPGlib 1.7.3 obtained from http://spglib.sourceforge.net
    Licence: New BSD license
    Copyright (C) 2008 Atsushi Togo


  The ELSI infrastructure was used in your run to solve the Kohn-Sham electronic structure.
  Please check out https://wordpress.elsi-interchange.org to learn more.
  If scalability is important for your project, please acknowledge ELSI by citing:

    V. W-z. Yu, F. Corsetti, A. Garcia, W. P. Huhn, M. Jacquelin, W. Jia,
    B. Lange, L. Lin, J. Lu, W. Mi, A. Seifitokaldani, A. Vazquez-Mayagoitia,
    C. Yang, H. Yang, and V. Blum
    'ELSI: A unified software interface for Kohn-Sham electronic structure solvers'
    Computer Physics Communications 222, 267-285 (2018).
    http://doi.org/10.1016/j.cpc.2017.09.007


  For the real-space grid partitioning and parallelization used in this calculation, please cite:

    Ville Havu, Volker Blum, Paula Havu, and Matthias Scheffler,
    'Efficient O(N) integration for all-electron electronic structure calculation'
    'using numerically tabulated basis functions'
    Journal of Computational Physics 228, 8367-8379 (2009).
    http://doi.org/10.1016/j.jcp.2009.08.008

  Of course, there are many other important community references, e.g., those cited in the
  above references. Our list is limited to references that describe implementations in the
  FHI-aims code. The reason is purely practical (length of this list) - please credit others as well.

   One or more s.c.f. cycles took more than 50 s.c.f. iterations.
   It might be worth adjusting your convergence settings. For example,
   metals need a larger broadening and a smaller "charge_mix_param" value than semiconductors.

------------------------------------------------------------
          Leaving FHI-aims.
          Date     :  20241013, Time     :  114506.105

          Computational steps:
          | Number of self-consistency cycles          :           97
          | Number of SCF (re)initializations          :            1

          Detailed time accounting                     :  max(cpu_time)    wall_clock(cpu1)
          | Total time                                  :      288.175 s         288.185 s
          | Preparation time                            :        0.542 s           0.540 s
          | Boundary condition initalization            :        0.042 s           0.042 s
          | Grid partitioning                           :        0.095 s           0.095 s
          | Preloading free-atom quantities on grid     :        0.158 s           0.158 s
          | Free-atom superposition energy              :        0.019 s           0.019 s
          | Total time for integrations                 :       97.285 s          97.290 s
          | Total time for solution of K.-S. equations  :       16.967 s          16.955 s
          | Total time for density update               :      103.334 s         103.338 s
          | Total time for mixing & preconditioning     :       56.987 s          56.985 s
          | Total time for Hartree multipole update     :        0.188 s           0.186 s
          | Total time for Hartree multipole sum        :        9.730 s           9.730 s
          | Total time for total energy evaluation      :        0.038 s           0.048 s
          | Total time for scaled ZORA corrections      :        1.292 s           1.292 s
          | Total time for Mulliken analysis            :        1.344 s           1.344 s

          Partial memory accounting:
          | Residual value for overall tracked memory usage across tasks:     0.000000 MB (should be 0.000000 MB)
          | Peak values for overall tracked memory usage:
          |   Minimum:       41.014 MB (on task  6 after allocating zora_vector2)
          |   Maximum:       45.520 MB (on task 28 after allocating zora_vector2)
          |   Average:       42.800 MB
          | Largest tracked array allocation:
          |   Minimum:        6.973 MB (zora_vector1 on task  6)
          |   Maximum:        7.965 MB (zora_vector1 on task 28)
          |   Average:        7.338 MB
          Note:  These values currently only include a subset of arrays which are explicitly tracked.
          The "true" memory usage will be greater.

          Have a nice day.
------------------------------------------------------------
