------------------------------------------------------------
          Invoking FHI-aims ...

          When using FHI-aims, please cite the following reference:

            Volker Blum, Ralf Gehrke, Felix Hanke, Paula Havu,
            Ville Havu, Xinguo Ren, Karsten Reuter, and Matthias Scheffler,
            'Ab Initio Molecular Simulations with Numeric Atom-Centered Orbitals',
            Computer Physics Communications 180, 2175-2196 (2009)

          In addition, many other developments in FHI-aims are likely important for
          your particular application. If so, please cite them. A partial list of references
          is written at the end of this file. Thank you for giving credit to the authors
          of these developments.

          For general information about FHI-aims please find us at

            https://fhi-aims.org

          Online tutorials can be found at

            https://fhi-aims-club.gitlab.io/tutorials/tutorials-overview/

          For any questions about FHI-aims, please visit our slack channel at

            https://fhi-aims.slack.com

          and our main development and support site at

            https://aims-git.rz-berlin.mpg.de .

          The latter site, in particular, has a wiki to collect information, as well
          as an issue tracker to log discussions, suggest improvements, and report issues
          or bugs. https://aims-git.rz-berlin.mpg.de is also the main development site
          of the project and all new and updated code versions can be obtained there.
          Please send an email to aims-coordinators@fhi-berlin.mpg.de and we will add
          you to these sites. They are for you and everyone is welcome there.

------------------------------------------------------------



  Date     :  20241003, Time     :  094523.562
  Time zero on CPU 1             :   0.886614000000000E+00  s.
  Internal wall clock time zero  :           497180723.562  s.

  FHI-aims created a unique identifier for this run for later identification
  aims_uuid : 1341A287-9400-471D-A945-3FA290DD91DF

  Build configuration of the current instance of FHI-aims
  -------------------------------------------------------
  FHI-aims version      : 240605
  Commit number         : b001b2e18
  CMake host system     : Linux-6.5.0-41-generic
  CMake version         : 3.22.1
  Fortran compiler      : /opt/intel/oneapi/mpi/2021.12/bin/mpiifort (IntelLLVM) version 2024.1.0
  Fortran compiler flags: -fc=ifx -O3 -ip -fp-model precise
  C compiler            : /opt/intel/oneapi/mpi/2021.12/bin/mpiicc (IntelLLVM) version 2024.1.0
  C compiler flags      : -cc=icx -O3 -ip -fp-model precise -std=gnu99
  C++ compiler          : /opt/intel/oneapi/mpi/2021.12/bin/mpiicpc (IntelLLVM) version 2024.1.0
  C++ compiler flags    : -cxx=icpx -O3 -ip -fp-model precise -std=c++11
  HIP compiler          :
  HIP compiler flags    :
  HIP GPU arch          :
  Using MPI
  Using ScaLAPACK
  Using LibXC
  Using i-PI
  Using RLSY
  Linking against: /opt/intel/oneapi/mkl/2024.1/lib/intel64/libmkl_intel_lp64.so
                   /opt/intel/oneapi/mkl/2024.1/lib/intel64/libmkl_sequential.so
                   /opt/intel/oneapi/mkl/2024.1/lib/intel64/libmkl_core.so
                   /opt/intel/oneapi/mkl/2024.1/lib/intel64/libmkl_blacs_intelmpi_lp64.so
                   /opt/intel/oneapi/mkl/2024.1/lib/intel64/libmkl_scalapack_lp64.so
                   /opt/intel/oneapi/mkl/2024.1/lib/intel64/libmkl_core.so

  Using      128 parallel tasks.
  Task        0 on host RSL-arvutus reporting.
  Task        1 on host RSL-arvutus reporting.
  Task        2 on host RSL-arvutus reporting.
  Task        3 on host RSL-arvutus reporting.
  Task        4 on host RSL-arvutus reporting.
  Task        5 on host RSL-arvutus reporting.
  Task        6 on host RSL-arvutus reporting.
  Task        7 on host RSL-arvutus reporting.
  Task        8 on host RSL-arvutus reporting.
  Task        9 on host RSL-arvutus reporting.
  Task       10 on host RSL-arvutus reporting.
  Task       11 on host RSL-arvutus reporting.
  Task       12 on host RSL-arvutus reporting.
  Task       13 on host RSL-arvutus reporting.
  Task       14 on host RSL-arvutus reporting.
  Task       15 on host RSL-arvutus reporting.
  Task       16 on host RSL-arvutus reporting.
  Task       17 on host RSL-arvutus reporting.
  Task       18 on host RSL-arvutus reporting.
  Task       19 on host RSL-arvutus reporting.
  Task       20 on host RSL-arvutus reporting.
  Task       21 on host RSL-arvutus reporting.
  Task       22 on host RSL-arvutus reporting.
  Task       23 on host RSL-arvutus reporting.
  Task       24 on host RSL-arvutus reporting.
  Task       25 on host RSL-arvutus reporting.
  Task       26 on host RSL-arvutus reporting.
  Task       27 on host RSL-arvutus reporting.
  Task       28 on host RSL-arvutus reporting.
  Task       29 on host RSL-arvutus reporting.
  Task       30 on host RSL-arvutus reporting.
  Task       31 on host RSL-arvutus reporting.
  Task       32 on host RSL-arvutus reporting.
  Task       33 on host RSL-arvutus reporting.
  Task       34 on host RSL-arvutus reporting.
  Task       35 on host RSL-arvutus reporting.
  Task       36 on host RSL-arvutus reporting.
  Task       37 on host RSL-arvutus reporting.
  Task       38 on host RSL-arvutus reporting.
  Task       39 on host RSL-arvutus reporting.
  Task       40 on host RSL-arvutus reporting.
  Task       41 on host RSL-arvutus reporting.
  Task       42 on host RSL-arvutus reporting.
  Task       43 on host RSL-arvutus reporting.
  Task       44 on host RSL-arvutus reporting.
  Task       45 on host RSL-arvutus reporting.
  Task       46 on host RSL-arvutus reporting.
  Task       47 on host RSL-arvutus reporting.
  Task       48 on host RSL-arvutus reporting.
  Task       49 on host RSL-arvutus reporting.
  Task       50 on host RSL-arvutus reporting.
  Task       51 on host RSL-arvutus reporting.
  Task       52 on host RSL-arvutus reporting.
  Task       53 on host RSL-arvutus reporting.
  Task       54 on host RSL-arvutus reporting.
  Task       55 on host RSL-arvutus reporting.
  Task       56 on host RSL-arvutus reporting.
  Task       57 on host RSL-arvutus reporting.
  Task       58 on host RSL-arvutus reporting.
  Task       59 on host RSL-arvutus reporting.
  Task       60 on host RSL-arvutus reporting.
  Task       61 on host RSL-arvutus reporting.
  Task       62 on host RSL-arvutus reporting.
  Task       63 on host RSL-arvutus reporting.
  Task       64 on host RSL-arvutus reporting.
  Task       65 on host RSL-arvutus reporting.
  Task       66 on host RSL-arvutus reporting.
  Task       67 on host RSL-arvutus reporting.
  Task       68 on host RSL-arvutus reporting.
  Task       69 on host RSL-arvutus reporting.
  Task       70 on host RSL-arvutus reporting.
  Task       71 on host RSL-arvutus reporting.
  Task       72 on host RSL-arvutus reporting.
  Task       73 on host RSL-arvutus reporting.
  Task       74 on host RSL-arvutus reporting.
  Task       75 on host RSL-arvutus reporting.
  Task       76 on host RSL-arvutus reporting.
  Task       77 on host RSL-arvutus reporting.
  Task       78 on host RSL-arvutus reporting.
  Task       79 on host RSL-arvutus reporting.
  Task       80 on host RSL-arvutus reporting.
  Task       81 on host RSL-arvutus reporting.
  Task       82 on host RSL-arvutus reporting.
  Task       83 on host RSL-arvutus reporting.
  Task       84 on host RSL-arvutus reporting.
  Task       85 on host RSL-arvutus reporting.
  Task       86 on host RSL-arvutus reporting.
  Task       87 on host RSL-arvutus reporting.
  Task       88 on host RSL-arvutus reporting.
  Task       89 on host RSL-arvutus reporting.
  Task       90 on host RSL-arvutus reporting.
  Task       91 on host RSL-arvutus reporting.
  Task       92 on host RSL-arvutus reporting.
  Task       93 on host RSL-arvutus reporting.
  Task       94 on host RSL-arvutus reporting.
  Task       95 on host RSL-arvutus reporting.
  Task       96 on host RSL-arvutus reporting.
  Task       97 on host RSL-arvutus reporting.
  Task       98 on host RSL-arvutus reporting.
  Task       99 on host RSL-arvutus reporting.
  Task      100 on host RSL-arvutus reporting.
  Task      101 on host RSL-arvutus reporting.
  Task      102 on host RSL-arvutus reporting.
  Task      103 on host RSL-arvutus reporting.
  Task      104 on host RSL-arvutus reporting.
  Task      105 on host RSL-arvutus reporting.
  Task      106 on host RSL-arvutus reporting.
  Task      107 on host RSL-arvutus reporting.
  Task      108 on host RSL-arvutus reporting.
  Task      109 on host RSL-arvutus reporting.
  Task      110 on host RSL-arvutus reporting.
  Task      111 on host RSL-arvutus reporting.
  Task      112 on host RSL-arvutus reporting.
  Task      113 on host RSL-arvutus reporting.
  Task      114 on host RSL-arvutus reporting.
  Task      115 on host RSL-arvutus reporting.
  Task      116 on host RSL-arvutus reporting.
  Task      117 on host RSL-arvutus reporting.
  Task      118 on host RSL-arvutus reporting.
  Task      119 on host RSL-arvutus reporting.
  Task      120 on host RSL-arvutus reporting.
  Task      121 on host RSL-arvutus reporting.
  Task      122 on host RSL-arvutus reporting.
  Task      123 on host RSL-arvutus reporting.
  Task      124 on host RSL-arvutus reporting.
  Task      125 on host RSL-arvutus reporting.
  Task      126 on host RSL-arvutus reporting.
  Task      127 on host RSL-arvutus reporting.

  Memory overcommitment is allowed on your operating system.

  Obtaining array dimensions for all initial allocations:
  
  -----------------------------------------------------------------------
  Parsing control.in (first pass over file, find array dimensions only).
  The contents of control.in will be repeated verbatim below
  unless switched off by setting 'verbatim_writeout .false.' .
  in the first line of control.in .
  -----------------------------------------------------------------------
  
    xc              pbe
    relativistic    atomic_zora scalar
    k_grid          4 8 2
  
    charge	  1.0
    output          Mulliken
  
  
  ################################################################################
  #
  #  FHI-aims code project
  #  VB, Fritz-Haber Institut, 2009
  #
  #  Suggested "light" defaults for Ti atom (to be pasted into control.in file)
  #  Be sure to double-check any results obtained with these settings for post-processing,
  #  e.g., with the "tight" defaults and larger basis sets.
  #
  ################################################################################
    species        Ti
  #     global species definitions
      nucleus             22
      mass                47.867
  #
      l_hartree           4
  #
      cut_pot             3.5          1.5  1.0
      basis_dep_cutoff    1e-4
  #
      radial_base         48 5.0
      radial_multiplier   1
      angular_grids       specified
        division   0.5171   50
        division   0.9824  110
        division   1.2917  194
        division   1.4940  302
  #      division   1.6934  434
  #      division   1.8425  590
  #      division   2.1901  770
  #      division   2.2896  974
  #      division   2.8244 1202
  #      outer_grid  974
        outer_grid  302
  ################################################################################
  #
  #  Definition of "minimal" basis
  #
  ################################################################################
  #     valence basis states
      valence      4  s   2.
      valence      3  p   6.
      valence      3  d   2.
  #     ion occupancy
      ion_occ      4  s   1.
      ion_occ      3  p   6.
      ion_occ      3  d   1.
  ################################################################################
  #
  #  Suggested additional basis functions. For production calculations,
  #  uncomment them one after another (the most important basis functions are
  #  listed first).
  #
  #  Constructed for dimers: 1.6 A, 1.85 A, 2.5 A, 3.25 A, 4.25 A
  #
  ################################################################################
  #  "First tier" - improvements: -396.25 meV to -19.41 meV
       hydro 4 f 8
       hydro 3 d 2.7
       ionic 4 p auto
  #     hydro 5 g 11.6
       ionic 4 s auto
  #  "Second tier" - improvements: -16.30 meV to -2.03 meV
  #     hydro 3 d 4.4
  #     hydro 6 h 16
  #     hydro 4 f 9.4
  #     hydro 4 p 4.5
  #     hydro 1 s 0.5
  #  "Third tier" - improvements: -6.28 meV to -0.37 meV
  #     hydro 4 d 6.4
  #     hydro 4 f 10
  #     hydro 5 g 12
  #     hydro 2 p 1.7
  #     hydro 6 h 16.4
  #     hydro 4 s 3.8
  #  Further basis functions: -0.45 meV and smaller improvements
  #     hydro 3 d 8.8
  #     hydro 5 p 18
  #     hydro 4 f 22.4
  #     hydro 5 f 7.2  # -0.16 meV
  #     hydro 3 d 2.1  # -0.11 meV
  #     hydro 5 g 7.4  # -0.09 meV
  
  
  ################################################################################
  #
  #  FHI-aims code project
  #  VB, Fritz-Haber Institut, 2009
  #
  #  Suggested "light" defaults for O atom (to be pasted into control.in file)
  #  Be sure to double-check any results obtained with these settings for post-processing,
  #  e.g., with the "tight" defaults and larger basis sets.
  #
  ################################################################################
    species        O
  #     global species definitions
      nucleus             8
      mass                15.9994
  #
      l_hartree           4
  #
      cut_pot             3.5  1.5  1.0
      basis_dep_cutoff    1e-4
  #
      radial_base         36 5.0
      radial_multiplier   1
       angular_grids specified
        division   0.2659   50
        division   0.4451  110
        division   0.6052  194
        division   0.7543  302
  #      division   0.8014  434
  #      division   0.8507  590
  #      division   0.8762  770
  #      division   0.9023  974
  #      division   1.2339 1202
  #      outer_grid 974
        outer_grid 302
  ################################################################################
  #
  #  Definition of "minimal" basis
  #
  ################################################################################
  #     valence basis states
      valence      2  s   2.
      valence      2  p   4.
  #     ion occupancy
      ion_occ      2  s   1.
      ion_occ      2  p   3.
  ################################################################################
  #
  #  Suggested additional basis functions. For production calculations,
  #  uncomment them one after another (the most important basis functions are
  #  listed first).
  #
  #  Constructed for dimers: 1.0 A, 1.208 A, 1.5 A, 2.0 A, 3.0 A
  #
  ################################################################################
  #  "First tier" - improvements: -699.05 meV to -159.38 meV
       hydro 2 p 1.8
       hydro 3 d 7.6
       hydro 3 s 6.4
  #  "Second tier" - improvements: -49.91 meV to -5.39 meV
  #     hydro 4 f 11.6
  #     hydro 3 p 6.2
  #     hydro 3 d 5.6
  #     hydro 5 g 17.6
  #     hydro 1 s 0.75
  #  "Third tier" - improvements: -2.83 meV to -0.50 meV
  #     ionic 2 p auto
  #     hydro 4 f 10.8
  #     hydro 4 d 4.7
  #     hydro 2 s 6.8
  #  "Fourth tier" - improvements: -0.40 meV to -0.12 meV
  #     hydro 3 p 5
  #     hydro 3 s 3.3
  #     hydro 5 g 15.6
  #     hydro 4 f 17.6
  #     hydro 4 d 14
  # Further basis functions - -0.08 meV and below
  #     hydro 3 s 2.1
  #     hydro 4 d 11.6
  #     hydro 3 p 16
  #     hydro 2 s 17.2
  ################################################################################
  #
  #  FHI-aims code project
  #  VB, Fritz-Haber Institut, 2009
  #
  #  Suggested "light" defaults for F atom (to be pasted into control.in file)
  #  Be sure to double-check any results obtained with these settings for post-processing,
  #  e.g., with the "tight" defaults and larger basis sets.
  #
  ################################################################################
    species        F
  #     global species definitions
      nucleus             9
      mass                18.9984032
  #
      l_hartree           4
  #
      cut_pot             3.5  1.5  1.0
      basis_dep_cutoff    1e-4
  #
      radial_base         37 5.0
      radial_multiplier   1
      angular_grids specified
        division   0.4014  110
        division   0.5291  194
        division   0.6019  302
  #      division   0.6814  434
  #      division   0.7989  590
  #      division   0.8965  770
  #      division   1.3427  974
  #      outer_grid   974
        outer_grid   302
  ################################################################################
  #
  #  Definition of "minimal" basis
  #
  ################################################################################
  #     valence basis states
      valence      2  s   2.
      valence      2  p   5.
  #     ion occupancy
      ion_occ      2  s   1.
      ion_occ      2  p   4.
  ################################################################################
  #
  #  Suggested additional basis functions. For production calculations,
  #  uncomment them one after another (the most important basis functions are
  #  listed first).
  #
  #  Constructed for dimers: 1.2 A, 1.418 A, 1.75 A, 2.25 A, 3.25 A
  #
  ################################################################################
  #  "First tier" - improvements: -149.44 meV to -45.88 meV
       hydro 2 p 1.7
       hydro 3 d 7.4
       hydro 3 s 6.8
  #  "Second tier" - improvements: -12.96 meV to -1.56 meV
  #     hydro 4 f 11.2
  #     ionic 2 p auto
  #     hydro 1 s 0.75
  #     hydro 4 d 8.8
  #     hydro 5 g 16.8
  #  "Third tier" - improvements: -0.58 meV to -0.05 meV
  #     hydro 3 p 6.2
  #     hydro 3 s 3.2
  #     hydro 4 f 9.6
  #     hydro 3 s 19.6
  #     hydro 4 d 8.6
  #     hydro 5 g 14.4
  # Further basis functions: -0.05 meV and below
  #     hydro 3 p 4.2
  
  -----------------------------------------------------------------------
  Completed first pass over input file control.in .
  -----------------------------------------------------------------------
  
  
  -----------------------------------------------------------------------
  Parsing geometry.in (first pass over file, find array dimensions only).
  The contents of geometry.in will be repeated verbatim below
  unless switched off by setting 'verbatim_writeout .false.' .
  in the first line of geometry.in .
  -----------------------------------------------------------------------
  
  lattice_vector 6.566127 0.000000 0.000000
  lattice_vector 0.000000 2.972883 0.000000
  lattice_vector 0.000000 0.000000 20.289704
  
  atom -0.000000 0.000000 7.500000 Ti
  atom 3.283063 1.486441 7.500000 Ti
  atom 1.276729 1.486441 7.500029 F
  atom 3.283086 0.000000 8.776767 O
  atom 6.566086 0.000000 9.506468 O
  atom 2.006317 1.486441 10.783206 O
  atom 3.283046 0.000000 10.783235 Ti
  atom 6.566109 1.486441 10.783235 Ti
  atom 4.559775 1.486441 10.783265 O
  atom 0.000005 0.000000 12.060002 O
  atom 3.283006 0.000000 12.789704 O
  
  -----------------------------------------------------------------------
  Completed first pass over input file geometry.in .
  -----------------------------------------------------------------------
  

  Basic array size parameters:
  | Number of species                 :        3
  | Number of atoms                   :       11
  | Number of lattice vectors         :        3
  | Max. basis fn. angular momentum   :        3
  | Max. atomic/ionic basis occupied n:        4
  | Max. number of basis fn. types    :        3
  | Max. radial fns per species/type  :        7
  | Max. logarithmic grid size        :     1383
  | Max. radial integration grid size :       48
  | Max. angular integration grid size:      302
  | Max. angular grid division number :        8
  | Radial grid for Hartree potential :     1383
  | Number of spin channels           :        1

------------------------------------------------------------
          Reading file control.in.
------------------------------------------------------------
  XC: Using PBE gradient-corrected functionals.
  Scalar relativistic treatment of kinetic energy: on-site free-atom approximation to ZORA.
  Found k-point grid:         4         8         2
  Charged system requested: Charge =   0.100000E+01.
  Mulliken charge analysis will be performed and summarised to the main output.
  Full Mulliken charge analysis will be written to file 'Mulliken.out'.
 
  Reading configuration options for species Ti                  .
  | Found nuclear charge :  22.0000
  | Found atomic mass :    47.8670000000000      amu
  | Found l_max for Hartree potential  :   4
  | Found cutoff potl. onset [A], width [A], scale factor :    3.50000    1.50000    1.00000
  | Threshold for basis-dependent cutoff potential is   0.100000E-03
  | Found data for basic radial integration grid :    48 points, outermost radius =    5.000 A
  | Found multiplier for basic radial grid :   1
  | Found angular grid specification: user-specified.
  | Specified grid contains     5 separate shells.
  | Check grid settings after all constraints further below.
  | Found free-atom valence shell :  4 s   2.000
  | Found free-atom valence shell :  3 p   6.000
  | Found free-atom valence shell :  3 d   2.000
  | Found free-ion valence shell :  4 s   1.000
  | Found free-ion valence shell :  3 p   6.000
  | Found free-ion valence shell :  3 d   1.000
  | Found hydrogenic basis function :  4 f   8.000
  | Found hydrogenic basis function :  3 d   2.700
  | Found ionic basis function :  4 p , default cutoff radius.
  | Found ionic basis function :  4 s , default cutoff radius.
 | Encountered keyword species, ending the description of species Ti                  .
  Species Ti                  : Missing cutoff potential type.
  Defaulting to exp(1/x)/(1-x)^2 type cutoff potential.
  Species Ti: No 'logarithmic' tag. Using default grid for free atom:
  | Default logarithmic grid data [bohr] : 0.1000E-03 0.1000E+03 0.1012E+01
  | Will include ionic basis functions of  2.0-fold positive Ti                   ion.
  Species Ti: On-site basis accuracy parameter (for Gram-Schmidt orthonormalisation) not specified.
  Using default value basis_acc =  0.1000000E-03.
  Species Ti                  : Using default innermost maximum threshold i_radial=  2 for radial functions.
  Species Ti                  : Default cutoff onset for free atom density etc. : 0.35000000E+01 AA.
  Species Ti                  : Basic radial grid will be enhanced according to radial_multiplier =   1, to contain    48 grid points.
 
  Reading configuration options for species O                   .
  | Found nuclear charge :   8.0000
  | Found atomic mass :    15.9994000000000      amu
  | Found l_max for Hartree potential  :   4
  | Found cutoff potl. onset [A], width [A], scale factor :    3.50000    1.50000    1.00000
  | Threshold for basis-dependent cutoff potential is   0.100000E-03
  | Found data for basic radial integration grid :    36 points, outermost radius =    5.000 A
  | Found multiplier for basic radial grid :   1
  | Found angular grid specification: user-specified.
  | Specified grid contains     5 separate shells.
  | Check grid settings after all constraints further below.
  | Found free-atom valence shell :  2 s   2.000
  | Found free-atom valence shell :  2 p   4.000
  | Found free-ion valence shell :  2 s   1.000
  | Found free-ion valence shell :  2 p   3.000
  | Found hydrogenic basis function :  2 p   1.800
  | Found hydrogenic basis function :  3 d   7.600
  | Found hydrogenic basis function :  3 s   6.400
 | Encountered keyword species, ending the description of species O                   .
  Species O                   : Missing cutoff potential type.
  Defaulting to exp(1/x)/(1-x)^2 type cutoff potential.
  Species O : No 'logarithmic' tag. Using default grid for free atom:
  | Default logarithmic grid data [bohr] : 0.1000E-03 0.1000E+03 0.1012E+01
  Species O : On-site basis accuracy parameter (for Gram-Schmidt orthonormalisation) not specified.
  Using default value basis_acc =  0.1000000E-03.
  Species O                   : Using default innermost maximum threshold i_radial=  2 for radial functions.
  Species O                   : Default cutoff onset for free atom density etc. : 0.35000000E+01 AA.
  Species O                   : Basic radial grid will be enhanced according to radial_multiplier =   1, to contain    36 grid points.
 
  Reading configuration options for species F                   .
  | Found nuclear charge :   9.0000
  | Found atomic mass :    18.9984032000000      amu
  | Found l_max for Hartree potential  :   4
  | Found cutoff potl. onset [A], width [A], scale factor :    3.50000    1.50000    1.00000
  | Threshold for basis-dependent cutoff potential is   0.100000E-03
  | Found data for basic radial integration grid :    37 points, outermost radius =    5.000 A
  | Found multiplier for basic radial grid :   1
  | Found angular grid specification: user-specified.
  | Specified grid contains     4 separate shells.
  | Check grid settings after all constraints further below.
  | Found free-atom valence shell :  2 s   2.000
  | Found free-atom valence shell :  2 p   5.000
  | Found free-ion valence shell :  2 s   1.000
  | Found free-ion valence shell :  2 p   4.000
  | Found hydrogenic basis function :  2 p   1.700
  | Found hydrogenic basis function :  3 d   7.400
  | Found hydrogenic basis function :  3 s   6.800
  Species F                   : Missing cutoff potential type.
  Defaulting to exp(1/x)/(1-x)^2 type cutoff potential.
  Species F : No 'logarithmic' tag. Using default grid for free atom:
  | Default logarithmic grid data [bohr] : 0.1000E-03 0.1000E+03 0.1012E+01
  Species F : On-site basis accuracy parameter (for Gram-Schmidt orthonormalisation) not specified.
  Using default value basis_acc =  0.1000000E-03.
  Species F                   : Using default innermost maximum threshold i_radial=  2 for radial functions.
  Species F                   : Default cutoff onset for free atom density etc. : 0.35000000E+01 AA.
  Species F                   : Basic radial grid will be enhanced according to radial_multiplier =   1, to contain    37 grid points.
 
  Finished reading input file 'control.in'.
 
------------------------------------------------------------


------------------------------------------------------------
          Reading geometry description geometry.in.
------------------------------------------------------------
  | The smallest distance between any two atoms is         1.95947539 AA.
  | The first atom of this pair is atom number                      1 .
  | The second atom of this pair is atom number                     3 .
  | Wigner-Seitz cell of the first atom image           0     0     0 .
  | (The Wigner-Seitz cell of the second atom is 0 0 0  by definition.)

  Symmetry information by spglib:
  | Precision set to  0.1E-04
  | Number of Operations  : 2
  | Space group           : 6
  | International         : Pm
  | Schoenflies           : Cs^1
  Input structure read successfully.
  The structure contains       11 atoms,  and a total of        144.000 electrons.

  Input geometry:
  | Unit cell:
  |        6.56612700        0.00000000        0.00000000
  |        0.00000000        2.97288300        0.00000000
  |        0.00000000        0.00000000       20.28970400
  | Atomic structure:
  |       Atom                x [A]            y [A]            z [A]
  |    1: Species Ti            0.00000000        0.00000000        7.50000000
  |    2: Species Ti            3.28306300        1.48644100        7.50000000
  |    3: Species F             1.27672900        1.48644100        7.50002900
  |    4: Species O             3.28308600        0.00000000        8.77676700
  |    5: Species O             6.56608600        0.00000000        9.50646800
  |    6: Species O             2.00631700        1.48644100       10.78320600
  |    7: Species Ti            3.28304600        0.00000000       10.78323500
  |    8: Species Ti            6.56610900        1.48644100       10.78323500
  |    9: Species O             4.55977500        1.48644100       10.78326500
  |   10: Species O             0.00000500        0.00000000       12.06000200
  |   11: Species O             3.28300600        0.00000000       12.78970400

  Lattice parameters for 3D lattice (in Angstroms) :     6.566127    2.972883   20.289704
  Angle(s) between unit vectors (in degrees)       :    90.000000   90.000000   90.000000


  Quantities derived from the lattice vectors (in Angstrom^-1):
  | Reciprocal lattice vector 1:  0.956909  0.000000  0.000000
  | Reciprocal lattice vector 2:  0.000000  2.113499  0.000000
  | Reciprocal lattice vector 3:  0.000000  0.000000  0.309674
  | Unit cell volume                               :   0.396062E+03  Angstrom^3

  Fractional coordinates:
                         L1                L2                L3
       atom_frac         0.00000000        0.00000000        0.36964561  Ti
       atom_frac         0.49999992        0.49999983        0.36964561  Ti
       atom_frac         0.19444172        0.49999983        0.36964704  F
       atom_frac         0.50000343        0.00000000        0.43257245  O
       atom_frac         0.99999376        0.00000000        0.46853655  O
       atom_frac         0.30555562        0.49999983        0.53146197  O
       atom_frac         0.49999733        0.00000000        0.53146340  Ti
       atom_frac         0.99999726        0.49999983        0.53146340  Ti
       atom_frac         0.69443905        0.49999983        0.53146487  O
       atom_frac         0.00000076        0.00000000        0.59439024  O
       atom_frac         0.49999124        0.00000000        0.63035439  O

  Slab Identifier: This is Z-oriented slab and maximum thickness of the vacuum is: 15.000 Angstrom.
 
  Finished reading input file 'geometry.in'.
 

 
  Consistency checks for stacksize environment parameter are next.
 
  | Maximum stacksize for task 0: unlimited
  | Maximum stacksize for task 1: unlimited
  | Maximum stacksize for task 2: unlimited
  | Maximum stacksize for task 3: unlimited
  | Maximum stacksize for task 4: unlimited
  | Maximum stacksize for task 5: unlimited
  | Maximum stacksize for task 6: unlimited
  | Maximum stacksize for task 7: unlimited
  | Maximum stacksize for task 8: unlimited
  | Maximum stacksize for task 9: unlimited
  | Maximum stacksize for task 10: unlimited
  | Maximum stacksize for task 11: unlimited
  | Maximum stacksize for task 12: unlimited
  | Maximum stacksize for task 13: unlimited
  | Maximum stacksize for task 14: unlimited
  | Maximum stacksize for task 15: unlimited
  | Maximum stacksize for task 16: unlimited
  | Maximum stacksize for task 17: unlimited
  | Maximum stacksize for task 18: unlimited
  | Maximum stacksize for task 19: unlimited
  | Maximum stacksize for task 20: unlimited
  | Maximum stacksize for task 21: unlimited
  | Maximum stacksize for task 22: unlimited
  | Maximum stacksize for task 23: unlimited
  | Maximum stacksize for task 24: unlimited
  | Maximum stacksize for task 25: unlimited
  | Maximum stacksize for task 26: unlimited
  | Maximum stacksize for task 27: unlimited
  | Maximum stacksize for task 28: unlimited
  | Maximum stacksize for task 29: unlimited
  | Maximum stacksize for task 30: unlimited
  | Maximum stacksize for task 31: unlimited
  | Maximum stacksize for task 32: unlimited
  | Maximum stacksize for task 33: unlimited
  | Maximum stacksize for task 34: unlimited
  | Maximum stacksize for task 35: unlimited
  | Maximum stacksize for task 36: unlimited
  | Maximum stacksize for task 37: unlimited
  | Maximum stacksize for task 38: unlimited
  | Maximum stacksize for task 39: unlimited
  | Maximum stacksize for task 40: unlimited
  | Maximum stacksize for task 41: unlimited
  | Maximum stacksize for task 42: unlimited
  | Maximum stacksize for task 43: unlimited
  | Maximum stacksize for task 44: unlimited
  | Maximum stacksize for task 45: unlimited
  | Maximum stacksize for task 46: unlimited
  | Maximum stacksize for task 47: unlimited
  | Maximum stacksize for task 48: unlimited
  | Maximum stacksize for task 49: unlimited
  | Maximum stacksize for task 50: unlimited
  | Maximum stacksize for task 51: unlimited
  | Maximum stacksize for task 52: unlimited
  | Maximum stacksize for task 53: unlimited
  | Maximum stacksize for task 54: unlimited
  | Maximum stacksize for task 55: unlimited
  | Maximum stacksize for task 56: unlimited
  | Maximum stacksize for task 57: unlimited
  | Maximum stacksize for task 58: unlimited
  | Maximum stacksize for task 59: unlimited
  | Maximum stacksize for task 60: unlimited
  | Maximum stacksize for task 61: unlimited
  | Maximum stacksize for task 62: unlimited
  | Maximum stacksize for task 63: unlimited
  | Maximum stacksize for task 64: unlimited
  | Maximum stacksize for task 65: unlimited
  | Maximum stacksize for task 66: unlimited
  | Maximum stacksize for task 67: unlimited
  | Maximum stacksize for task 68: unlimited
  | Maximum stacksize for task 69: unlimited
  | Maximum stacksize for task 70: unlimited
  | Maximum stacksize for task 71: unlimited
  | Maximum stacksize for task 72: unlimited
  | Maximum stacksize for task 73: unlimited
  | Maximum stacksize for task 74: unlimited
  | Maximum stacksize for task 75: unlimited
  | Maximum stacksize for task 76: unlimited
  | Maximum stacksize for task 77: unlimited
  | Maximum stacksize for task 78: unlimited
  | Maximum stacksize for task 79: unlimited
  | Maximum stacksize for task 80: unlimited
  | Maximum stacksize for task 81: unlimited
  | Maximum stacksize for task 82: unlimited
  | Maximum stacksize for task 83: unlimited
  | Maximum stacksize for task 84: unlimited
  | Maximum stacksize for task 85: unlimited
  | Maximum stacksize for task 86: unlimited
  | Maximum stacksize for task 87: unlimited
  | Maximum stacksize for task 88: unlimited
  | Maximum stacksize for task 89: unlimited
  | Maximum stacksize for task 90: unlimited
  | Maximum stacksize for task 91: unlimited
  | Maximum stacksize for task 92: unlimited
  | Maximum stacksize for task 93: unlimited
  | Maximum stacksize for task 94: unlimited
  | Maximum stacksize for task 95: unlimited
  | Maximum stacksize for task 96: unlimited
  | Maximum stacksize for task 97: unlimited
  | Maximum stacksize for task 98: unlimited
  | Maximum stacksize for task 99: unlimited
  | Maximum stacksize for task 100: unlimited
  | Maximum stacksize for task 101: unlimited
  | Maximum stacksize for task 102: unlimited
  | Maximum stacksize for task 103: unlimited
  | Maximum stacksize for task 104: unlimited
  | Maximum stacksize for task 105: unlimited
  | Maximum stacksize for task 106: unlimited
  | Maximum stacksize for task 107: unlimited
  | Maximum stacksize for task 108: unlimited
  | Maximum stacksize for task 109: unlimited
  | Maximum stacksize for task 110: unlimited
  | Maximum stacksize for task 111: unlimited
  | Maximum stacksize for task 112: unlimited
  | Maximum stacksize for task 113: unlimited
  | Maximum stacksize for task 114: unlimited
  | Maximum stacksize for task 115: unlimited
  | Maximum stacksize for task 116: unlimited
  | Maximum stacksize for task 117: unlimited
  | Maximum stacksize for task 118: unlimited
  | Maximum stacksize for task 119: unlimited
  | Maximum stacksize for task 120: unlimited
  | Maximum stacksize for task 121: unlimited
  | Maximum stacksize for task 122: unlimited
  | Maximum stacksize for task 123: unlimited
  | Maximum stacksize for task 124: unlimited
  | Maximum stacksize for task 125: unlimited
  | Maximum stacksize for task 126: unlimited
  | Maximum stacksize for task 127: unlimited
  | Current stacksize for task 0: unlimited
  | Current stacksize for task 1: unlimited
  | Current stacksize for task 2: unlimited
  | Current stacksize for task 3: unlimited
  | Current stacksize for task 4: unlimited
  | Current stacksize for task 5: unlimited
  | Current stacksize for task 6: unlimited
  | Current stacksize for task 7: unlimited
  | Current stacksize for task 8: unlimited
  | Current stacksize for task 9: unlimited
  | Current stacksize for task 10: unlimited
  | Current stacksize for task 11: unlimited
  | Current stacksize for task 12: unlimited
  | Current stacksize for task 13: unlimited
  | Current stacksize for task 14: unlimited
  | Current stacksize for task 15: unlimited
  | Current stacksize for task 16: unlimited
  | Current stacksize for task 17: unlimited
  | Current stacksize for task 18: unlimited
  | Current stacksize for task 19: unlimited
  | Current stacksize for task 20: unlimited
  | Current stacksize for task 21: unlimited
  | Current stacksize for task 22: unlimited
  | Current stacksize for task 23: unlimited
  | Current stacksize for task 24: unlimited
  | Current stacksize for task 25: unlimited
  | Current stacksize for task 26: unlimited
  | Current stacksize for task 27: unlimited
  | Current stacksize for task 28: unlimited
  | Current stacksize for task 29: unlimited
  | Current stacksize for task 30: unlimited
  | Current stacksize for task 31: unlimited
  | Current stacksize for task 32: unlimited
  | Current stacksize for task 33: unlimited
  | Current stacksize for task 34: unlimited
  | Current stacksize for task 35: unlimited
  | Current stacksize for task 36: unlimited
  | Current stacksize for task 37: unlimited
  | Current stacksize for task 38: unlimited
  | Current stacksize for task 39: unlimited
  | Current stacksize for task 40: unlimited
  | Current stacksize for task 41: unlimited
  | Current stacksize for task 42: unlimited
  | Current stacksize for task 43: unlimited
  | Current stacksize for task 44: unlimited
  | Current stacksize for task 45: unlimited
  | Current stacksize for task 46: unlimited
  | Current stacksize for task 47: unlimited
  | Current stacksize for task 48: unlimited
  | Current stacksize for task 49: unlimited
  | Current stacksize for task 50: unlimited
  | Current stacksize for task 51: unlimited
  | Current stacksize for task 52: unlimited
  | Current stacksize for task 53: unlimited
  | Current stacksize for task 54: unlimited
  | Current stacksize for task 55: unlimited
  | Current stacksize for task 56: unlimited
  | Current stacksize for task 57: unlimited
  | Current stacksize for task 58: unlimited
  | Current stacksize for task 59: unlimited
  | Current stacksize for task 60: unlimited
  | Current stacksize for task 61: unlimited
  | Current stacksize for task 62: unlimited
  | Current stacksize for task 63: unlimited
  | Current stacksize for task 64: unlimited
  | Current stacksize for task 65: unlimited
  | Current stacksize for task 66: unlimited
  | Current stacksize for task 67: unlimited
  | Current stacksize for task 68: unlimited
  | Current stacksize for task 69: unlimited
  | Current stacksize for task 70: unlimited
  | Current stacksize for task 71: unlimited
  | Current stacksize for task 72: unlimited
  | Current stacksize for task 73: unlimited
  | Current stacksize for task 74: unlimited
  | Current stacksize for task 75: unlimited
  | Current stacksize for task 76: unlimited
  | Current stacksize for task 77: unlimited
  | Current stacksize for task 78: unlimited
  | Current stacksize for task 79: unlimited
  | Current stacksize for task 80: unlimited
  | Current stacksize for task 81: unlimited
  | Current stacksize for task 82: unlimited
  | Current stacksize for task 83: unlimited
  | Current stacksize for task 84: unlimited
  | Current stacksize for task 85: unlimited
  | Current stacksize for task 86: unlimited
  | Current stacksize for task 87: unlimited
  | Current stacksize for task 88: unlimited
  | Current stacksize for task 89: unlimited
  | Current stacksize for task 90: unlimited
  | Current stacksize for task 91: unlimited
  | Current stacksize for task 92: unlimited
  | Current stacksize for task 93: unlimited
  | Current stacksize for task 94: unlimited
  | Current stacksize for task 95: unlimited
  | Current stacksize for task 96: unlimited
  | Current stacksize for task 97: unlimited
  | Current stacksize for task 98: unlimited
  | Current stacksize for task 99: unlimited
  | Current stacksize for task 100: unlimited
  | Current stacksize for task 101: unlimited
  | Current stacksize for task 102: unlimited
  | Current stacksize for task 103: unlimited
  | Current stacksize for task 104: unlimited
  | Current stacksize for task 105: unlimited
  | Current stacksize for task 106: unlimited
  | Current stacksize for task 107: unlimited
  | Current stacksize for task 108: unlimited
  | Current stacksize for task 109: unlimited
  | Current stacksize for task 110: unlimited
  | Current stacksize for task 111: unlimited
  | Current stacksize for task 112: unlimited
  | Current stacksize for task 113: unlimited
  | Current stacksize for task 114: unlimited
  | Current stacksize for task 115: unlimited
  | Current stacksize for task 116: unlimited
  | Current stacksize for task 117: unlimited
  | Current stacksize for task 118: unlimited
  | Current stacksize for task 119: unlimited
  | Current stacksize for task 120: unlimited
  | Current stacksize for task 121: unlimited
  | Current stacksize for task 122: unlimited
  | Current stacksize for task 123: unlimited
  | Current stacksize for task 124: unlimited
  | Current stacksize for task 125: unlimited
  | Current stacksize for task 126: unlimited
  | Current stacksize for task 127: unlimited
 
  Consistency checks for the contents of control.in are next.
 
  MPI_IN_PLACE appears to work with this MPI implementation.
  | Keeping use_mpi_in_place .true. (see manual).
  Target number of points in a grid batch is not set. Defaulting to  100
  Method for grid partitioning is not set. Defaulting to parallel hash+maxmin partitioning.
  Batch size limit is not set. Defaulting to    200
  By default, will store active basis functions for each batch.
  If in need of memory, prune_basis_once .false. can be used to disable this option.
  communication_type for Hartree potential was not specified.
  Defaulting to calc_hartree .
  Defaulting to Pulay charge density mixer.
  Pulay mixer: Number of relevant iterations not set.
  Defaulting to    8 iterations.
  Pulay mixer: Number of initial linear mixing iterations not set.
  Defaulting to    0 iterations.
  Work space size for distributed Hartree potential not set.
  Defaulting to   0.200000E+03 MB.
  Mixing parameter for charge density mixing has not been set.
  Using default: charge_mix_param =     0.0500.
  The mixing parameter will be adjusted in iteration number     2 of each s.c.f. cycle (i.e., each geometry step).
  Algorithm-dependent basis array size parameters:
  | n_max_pulay                         :        8
  Maximum number of self-consistency iterations not provided.
  Presetting  1000 iterations.
  Presetting      1001 iterations before the initial mixing cycle
  is restarted anyway using the sc_init_iter criterion / keyword.
  Presetting a factor      1.000 between actual scf density residual
  and density convergence criterion sc_accuracy_rho below which sc_init_iter
  takes no effect.
 * No s.c.f. convergence criteria (sc_accuracy_*) were provided in control.in.
 * The run will proceed with a reasonable default guess, but please check whether.
 * the s.c.f. cycles seem to take too much or too little time.
  Calculation of forces was not defined in control.in. No forces will be calculated.
  Geometry relaxation not requested: no relaxation will be performed.
 * Notice: The s.c.f. convergence criterion sc_accuracy_rho was not provided.
 * We used to stop in this case, and ask the user to provide reasonable
 * scf convergence criteria. However, this led some users to employ criteria
 * that led to extremely long run times, e.g., for simple relaxation.
 * We now preset a default value for sc_accuracy_rho if it is not set.
 * You may still wish to check if this setting is too tight or too loose for your needs.
 * Based on n_atoms and forces and force-correction status, FHI-aims chose sc_accuracy_rho =  0.135401E-05 .
  No accuracy limit for integral partition fn. given. Defaulting to  0.1000E-14.
  No threshold value for u(r) in integrations given. Defaulting to  0.1000E-05.
  No occupation type (smearing scheme) given. Defaulting to Gaussian broadening, width =  0.1000E-01 eV.
  The width will be adjusted in iteration number     2 of each s.c.f. cycle (i.e., each geometry step).
  No accuracy for occupation numbers given. Defaulting to  0.1000E-12.
  No threshold value for occupation numbers given. Defaulting to  0.0000E+00.
  No accuracy for fermi level given. Defaulting to  0.1000E-19.
  Maximum # of iterations to find E_F not set. Defaulting to  200.
  Preferred method for the eigenvalue solver ('KS_method') not specified in 'control.in'.
  Calling BLACS routine to test compilation state
  Since ScaLAPACK support is enabled, defaulting to ELPA (via ELSI).
  Will not use alltoall communication since running on < 1024 CPUs.
  Threshold for basis singularities not set.
  Default threshold for basis singularities:  0.1000E-04
  partition_type (choice of integration weights) for integrals was not specified.
  | Using a version of the partition function of Stratmann and coworkers ('stratmann_sparse').
  | At each grid point, the set of atoms used to build the partition table is smoothly restricted to
  | only those atoms whose free-atom density would be non-zero at that grid point.
  Partitioning for Hartree potential was not defined. Using partition_type for integrals.
  | Adjusted default value of keyword multip_moments_threshold to:       0.10000000E-11
  | This value may affect high angular momentum components of the Hartree potential in periodic systems.
  Spin handling was not defined in control.in. Defaulting to unpolarized case.
  Angular momentum expansion for Kerker preconditioner not set explicitly.
  | Using default value of   0
  No explicit requirement for turning off preconditioner.
  | By default, it will be turned off when the charge convergence reaches
  | sc_accuracy_rho  =   0.135401E-05
  No special mixing parameter while Kerker preconditioner is on.
  Using default: charge_mix_param =     0.0500.
  No q(lm)/r^(l+1) cutoff set for long-range Hartree potential.
  | Using default value of  0.100000E-09 .
  | Verify using the multipole_threshold keyword.
  Defaulting to new monopole extrapolation.
  Density update method: automatic selection selected.
  Using density matrix based charge density update.
  Using density matrix based charge density update.
  Using packed matrix style: index .
  Defaulting to use time-reversal symmetry for k-point grid.
  Charge integration errors on the 3D integration grid will be compensated
  by explicit normalization and distribution of residual charges.
  Use the "compensate_multipole_errors" flag to change this behaviour.
  Found no potential conflicts with setting 'use_local_index' for this calculation.
  Flag 'use_local_index' has not been set.
  Testing whether we classify this calculation as large-scale ...
  The calculation contains less than 100 atoms. This is most likely not a large-scale calculation.
  Not setting 'use_local_index'.
 
  Consistency checks for the contents of geometry.in are next.
 

  Range separation radius for Ewald summation (hartree_convergence_parameter):      4.79960566 bohr.
 * Warning: Initial charge and total charge of the system are inconsistent.
 * Selected charge in control.in:     1.0000* Sum of initial charges in geometry.in:     0.0000
  Number of empty states per atom not set in control.in - providing a guess from actual geometry.
  | Total number of empty states used during s.c.f. cycle:       43
  If you use a very high smearing, use empty_states (per atom!) in control.in to increase this value.

  Structure-dependent array size parameters: 
  | Maximum number of distinct radial functions  :       23
  | Maximum number of basis functions            :      222
  | Number of Kohn-Sham states (occupied + empty):      115
------------------------------------------------------------
  After read_input_data [GB]:   1040.74

  Performing system and environment tests:
  *** Environment variable OMP_NUM_THREADS is not set
  *** For performance reasons you might want to set it to 1
  | Checking for ScaLAPACK...
  | Testing pdtran()...
  | All pdtran() tests passed.
  After prepare_system [GB]:   1040.40

------------------------------------------------------------
          Preparing all fixed parts of the calculation.
------------------------------------------------------------
  Determining machine precision:
    2.225073858507201E-308
  Setting up grids for atomic and cluster calculations.

  Creating wave function, potential, and density for free atoms.
  Runtime choices for atomic solver:
  | atomic solver xc        : PBE
  | compute density gradient: 1
  | compute kinetic density : F

  Species: Ti

  List of occupied orbitals and eigenvalues:
    n    l              occ      energy [Ha]    energy [eV]
    1    0           2.0000      -179.959082     -4896.9358
    2    0           2.0000       -19.727662      -536.8170
    3    0           2.0000        -2.283029       -62.1244
    4    0           2.0000        -0.148384        -4.0377
    2    1           6.0000       -16.317278      -444.0157
    3    1           6.0000        -1.409348       -38.3503
    3    2           2.0000        -0.139340        -3.7916


  Species: O

  List of occupied orbitals and eigenvalues:
    n    l              occ      energy [Ha]    energy [eV]
    1    0           2.0000       -18.926989      -515.0296
    2    0           2.0000        -0.880247       -23.9527
    2    1           4.0000        -0.331514        -9.0210


  Species: F

  List of occupied orbitals and eigenvalues:
    n    l              occ      energy [Ha]    energy [eV]
    1    0           2.0000       -24.399611      -663.9472
    2    0           2.0000        -1.098702       -29.8972
    2    1           5.0000        -0.408210       -11.1080


  Adding cutoff potential to free-atom effective potential.
  Creating fixed part of basis set: Ionic, confined, hydrogenic.
 
  Ti                   ion:

  List of free ionic orbitals and eigenvalues:
    n    l      energy [Ha]    energy [eV]
    1    0      -180.819616     -4920.3521
    2    0       -20.608761      -560.7929
    3    0        -3.115729       -84.7833
    4    0        -0.697188       -18.9715
    2    1       -17.196209      -467.9327
    3    1        -2.231296       -60.7167
    3    2        -0.911363       -24.7995


  List of ionic basis orbitals and eigenvalues:
    n    l      energy [Ha]    energy [eV]    outer radius [A]
    4    1        -0.517739       -14.0884       4.592117
    4    0        -0.696824       -18.9615       4.536321

 
  Ti                   hydrogenic:
 
  List of hydrogenic basis orbitals: 
    n    l      effective z      eigenvalue [eV]  inner max. [A]     outer max. [A]     outer radius [A]   
    4    3         8.000000       -54.4222           1.059019           1.059019           4.267343
    3    2         2.700000       -10.7798           1.726925           1.726925           4.592117
 
 
  O                    hydrogenic:
 
  List of hydrogenic basis orbitals: 
    n    l      effective z      eigenvalue [eV]  inner max. [A]     outer max. [A]     outer radius [A]   
    2    1         1.800000       -10.9749           1.164242           1.164242           4.578029
    3    2         7.600000       -87.3180           0.624125           0.624125           3.251020
    3    0         6.400000       -61.9207           0.061167           1.081902           4.001998
 
 
  F                    hydrogenic:
 
  List of hydrogenic basis orbitals: 
    n    l      effective z      eigenvalue [eV]  inner max. [A]     outer max. [A]     outer radius [A]   
    2    1         1.700000        -9.7616           1.243167           1.243167           4.598524
    3    2         7.400000       -82.7828           0.642437           0.642437           3.305741
    3    0         6.800000       -69.9026           0.057798           1.022307           3.781556
 
  Creating atomic-like basis functions for current effective potential.

  Species Ti                  :

  List of atomic basis orbitals and eigenvalues:
    n    l      energy [Ha]    energy [eV]    outer radius [A]
    1    0      -179.959082     -4896.9358       0.490254
    2    0       -19.727662      -536.8170       1.491292
    3    0        -2.283029       -62.1244       4.014314
    4    0        -0.148384        -4.0377       4.592117
    2    1       -16.317278      -444.0157       1.585290
    3    1        -1.409348       -38.3503       4.267343
    3    2        -0.139340        -3.7916       4.536321


  Species O                   :

  List of atomic basis orbitals and eigenvalues:
    n    l      energy [Ha]    energy [eV]    outer radius [A]
    1    0       -18.926989      -515.0296       1.415765
    2    0        -0.880247       -23.9527       4.413171
    2    1        -0.331514        -9.0210       4.522403


  Species F                   :

  List of atomic basis orbitals and eigenvalues:
    n    l      energy [Ha]    energy [eV]    outer radius [A]
    1    0       -24.399611      -663.9472       1.258458
    2    0        -1.098702       -29.8972       4.325857
    2    1        -0.408210       -11.1080       4.487453

  Assembling full basis from fixed parts.
  | Species Ti :   atomic orbital   1 s accepted.
  | Species Ti :   atomic orbital   2 s accepted.
  | Species Ti :   atomic orbital   3 s accepted.
  | Species Ti :    ionic orbital   4 s accepted.
  | Species Ti :   atomic orbital   4 s accepted.
  | Species Ti :   atomic orbital   2 p accepted.
  | Species Ti :   atomic orbital   3 p accepted.
  | Species Ti :    ionic orbital   4 p accepted.
  | Species Ti :   atomic orbital   3 d accepted.
  | Species Ti :    hydro orbital   3 d accepted.
  | Species Ti :    hydro orbital   4 f accepted.
  | Species O :   atomic orbital   1 s accepted.
  | Species O :    hydro orbital   3 s accepted.
  | Species O :   atomic orbital   2 s accepted.
  | Species O :   atomic orbital   2 p accepted.
  | Species O :    hydro orbital   2 p accepted.
  | Species O :    hydro orbital   3 d accepted.
  | Species F :   atomic orbital   1 s accepted.
  | Species F :    hydro orbital   3 s accepted.
  | Species F :   atomic orbital   2 s accepted.
  | Species F :   atomic orbital   2 p accepted.
  | Species F :    hydro orbital   2 p accepted.
  | Species F :    hydro orbital   3 d accepted.
 
  Basis size parameters after reduction:
  | Total number of radial functions:       23
  | Total number of basis functions :      222
 
  Per-task memory consumption for arrays in subroutine allocate_ext:
  |           8.150188MB.
  Testing on-site integration grid accuracy.
  |  Species  Function  <phi|h_atom|phi> (log., in eV)  <phi|h_atom|phi> (rad., in eV)
           1        1              -4896.9357674450              -4896.9322830202
           1        2               -536.8170048508               -536.8169722333
           1        3                -62.1243896260                -62.1243889283
           1        4                 -3.2653235630                 -3.2692838808
           1        5                  6.7987747276                  6.5460721883 ***
           1        6               -444.0157161949               -444.0157165810
           1        7                -38.3503235548                -38.3503234963
           1        8                  0.2923930877                  0.2745948116
           1        9                 -3.7933400649                 -3.7959244177
           1       10                  6.3288803616                  6.2510614929 ***
           1       11                 27.8451455747                 27.8452636416
           2       12               -515.0295626295               -515.0294562738
           2       13                 15.1698434419                 15.1699322204
           2       14                -21.6038822678                -21.6039118105
           2       15                 -9.0211123393                 -9.0212703513
           2       16                  8.3047696391                  8.2854840999
           2       17                 45.8428042125                 45.8427461222
           3       18               -663.9471986398               -663.9470363334
           3       19                 16.8514011578                 16.8512525338
           3       20                -28.4490593856                -28.4490661472
           3       21                -11.1080115307                -11.1080620173
           3       22                  7.1940182175                  7.1685154137
           3       23                 44.8544281765                 44.8543763625
 * Note: Onsite integrals marked "***" above are less accurate than
 * onsite_accuracy_threshold =    0.03000 eV. Usually, this is harmless.
 * When in doubt, tighten the "radial" and/or "radial_multiplier" flags to check.

  Preparing densities etc. for the partition functions (integrals / Hartree potential).

  Preparations completed.
  max(cpu_time)          :      0.404 s.
  Wall clock time (cpu1) :      0.399 s.
------------------------------------------------------------
  After prepare_scf [GB]:   1033.45

  Initializing index lists of integration centers etc. from given atomic structure:
  Mapping all atomic coordinates to central unit cell.

  Initializing the k-points
  Using symmetry for reducing the k-points
  | k-points reduced from:       64 to       36
  | Number of k-points                             :        36
  The eigenvectors in the calculations are COMPLEX.
  | Number of basis functions in the Hamiltonian integrals :      3646
  | Number of basis functions in a single unit cell        :       222
  | Number of centers in hartree potential         :      1203
  | Number of centers in hartree multipole         :       557
  | Number of centers in electron density summation:       436
  | Number of centers in basis integrals           :       461
  | Number of centers in integrals                 :       210
  | Number of centers in hamiltonian               :       444
  | Consuming         50 KiB for k_phase.
  | Number of super-cells (origin) [n_cells]                     :         675
  | Number of super-cells (after PM_index) [n_cells]             :          90
  | Number of super-cells in hamiltonian [n_cells_in_hamiltonian]:          90
  | Size of matrix packed + index [n_hamiltonian_matrix_size] :      247889
  After initialize_bc_dependent_lists [GB]:   1033.44

------------------------------------------------------------
          Begin self-consistency loop: Initialization.

          Date     :  20241003, Time     :  094524.098
------------------------------------------------------------
  Available memory per node after initialize_hartree_non_periodic_ewald [GB]:   1033.44
  | Estimated reciprocal-space cutoff momentum G_max:         1.92520692 bohr^-1 .
  | Reciprocal lattice points for long-range Hartree potential:     330
  Available memory per node after initialize_recip_hartree_potential [GB]:   1033.44
  Using simple linear distribution as default method for k-point parallelism.
  * Using 128 tasks for Scalapack Eigenvalue solver.
  Detailed listing of tasks and assigned k-points:
   Task     0 k-point     1 on RSL-arvutus
   Task     1 k-point     1 on RSL-arvutus
   Task     2 k-point     1 on RSL-arvutus
   Task     3 k-point     1 on RSL-arvutus
   Task     4 k-point     2 on RSL-arvutus
   Task     5 k-point     2 on RSL-arvutus
   Task     6 k-point     2 on RSL-arvutus
   Task     7 k-point     2 on RSL-arvutus
   Task     8 k-point     3 on RSL-arvutus
   Task     9 k-point     3 on RSL-arvutus
   Task    10 k-point     3 on RSL-arvutus
   Task    11 k-point     4 on RSL-arvutus
   Task    12 k-point     4 on RSL-arvutus
   Task    13 k-point     4 on RSL-arvutus
   Task    14 k-point     4 on RSL-arvutus
   Task    15 k-point     5 on RSL-arvutus
   Task    16 k-point     5 on RSL-arvutus
   Task    17 k-point     5 on RSL-arvutus
   Task    18 k-point     6 on RSL-arvutus
   Task    19 k-point     6 on RSL-arvutus
   Task    20 k-point     6 on RSL-arvutus
   Task    21 k-point     6 on RSL-arvutus
   Task    22 k-point     7 on RSL-arvutus
   Task    23 k-point     7 on RSL-arvutus
   Task    24 k-point     7 on RSL-arvutus
   Task    25 k-point     8 on RSL-arvutus
   Task    26 k-point     8 on RSL-arvutus
   Task    27 k-point     8 on RSL-arvutus
   Task    28 k-point     8 on RSL-arvutus
   Task    29 k-point     9 on RSL-arvutus
   Task    30 k-point     9 on RSL-arvutus
   Task    31 k-point     9 on RSL-arvutus
   Task    32 k-point    10 on RSL-arvutus
   Task    33 k-point    10 on RSL-arvutus
   Task    34 k-point    10 on RSL-arvutus
   Task    35 k-point    10 on RSL-arvutus
   Task    36 k-point    11 on RSL-arvutus
   Task    37 k-point    11 on RSL-arvutus
   Task    38 k-point    11 on RSL-arvutus
   Task    39 k-point    11 on RSL-arvutus
   Task    40 k-point    12 on RSL-arvutus
   Task    41 k-point    12 on RSL-arvutus
   Task    42 k-point    12 on RSL-arvutus
   Task    43 k-point    13 on RSL-arvutus
   Task    44 k-point    13 on RSL-arvutus
   Task    45 k-point    13 on RSL-arvutus
   Task    46 k-point    13 on RSL-arvutus
   Task    47 k-point    14 on RSL-arvutus
   Task    48 k-point    14 on RSL-arvutus
   Task    49 k-point    14 on RSL-arvutus
   Task    50 k-point    15 on RSL-arvutus
   Task    51 k-point    15 on RSL-arvutus
   Task    52 k-point    15 on RSL-arvutus
   Task    53 k-point    15 on RSL-arvutus
   Task    54 k-point    16 on RSL-arvutus
   Task    55 k-point    16 on RSL-arvutus
   Task    56 k-point    16 on RSL-arvutus
   Task    57 k-point    17 on RSL-arvutus
   Task    58 k-point    17 on RSL-arvutus
   Task    59 k-point    17 on RSL-arvutus
   Task    60 k-point    17 on RSL-arvutus
   Task    61 k-point    18 on RSL-arvutus
   Task    62 k-point    18 on RSL-arvutus
   Task    63 k-point    18 on RSL-arvutus
   Task    64 k-point    19 on RSL-arvutus
   Task    65 k-point    19 on RSL-arvutus
   Task    66 k-point    19 on RSL-arvutus
   Task    67 k-point    19 on RSL-arvutus
   Task    68 k-point    20 on RSL-arvutus
   Task    69 k-point    20 on RSL-arvutus
   Task    70 k-point    20 on RSL-arvutus
   Task    71 k-point    20 on RSL-arvutus
   Task    72 k-point    21 on RSL-arvutus
   Task    73 k-point    21 on RSL-arvutus
   Task    74 k-point    21 on RSL-arvutus
   Task    75 k-point    22 on RSL-arvutus
   Task    76 k-point    22 on RSL-arvutus
   Task    77 k-point    22 on RSL-arvutus
   Task    78 k-point    22 on RSL-arvutus
   Task    79 k-point    23 on RSL-arvutus
   Task    80 k-point    23 on RSL-arvutus
   Task    81 k-point    23 on RSL-arvutus
   Task    82 k-point    24 on RSL-arvutus
   Task    83 k-point    24 on RSL-arvutus
   Task    84 k-point    24 on RSL-arvutus
   Task    85 k-point    24 on RSL-arvutus
   Task    86 k-point    25 on RSL-arvutus
   Task    87 k-point    25 on RSL-arvutus
   Task    88 k-point    25 on RSL-arvutus
   Task    89 k-point    26 on RSL-arvutus
   Task    90 k-point    26 on RSL-arvutus
   Task    91 k-point    26 on RSL-arvutus
   Task    92 k-point    26 on RSL-arvutus
   Task    93 k-point    27 on RSL-arvutus
   Task    94 k-point    27 on RSL-arvutus
   Task    95 k-point    27 on RSL-arvutus
   Task    96 k-point    28 on RSL-arvutus
   Task    97 k-point    28 on RSL-arvutus
   Task    98 k-point    28 on RSL-arvutus
   Task    99 k-point    28 on RSL-arvutus
   Task   100 k-point    29 on RSL-arvutus
   Task   101 k-point    29 on RSL-arvutus
   Task   102 k-point    29 on RSL-arvutus
   Task   103 k-point    29 on RSL-arvutus
   Task   104 k-point    30 on RSL-arvutus
   Task   105 k-point    30 on RSL-arvutus
   Task   106 k-point    30 on RSL-arvutus
   Task   107 k-point    31 on RSL-arvutus
   Task   108 k-point    31 on RSL-arvutus
   Task   109 k-point    31 on RSL-arvutus
   Task   110 k-point    31 on RSL-arvutus
   Task   111 k-point    32 on RSL-arvutus
   Task   112 k-point    32 on RSL-arvutus
   Task   113 k-point    32 on RSL-arvutus
   Task   114 k-point    33 on RSL-arvutus
   Task   115 k-point    33 on RSL-arvutus
   Task   116 k-point    33 on RSL-arvutus
   Task   117 k-point    33 on RSL-arvutus
   Task   118 k-point    34 on RSL-arvutus
   Task   119 k-point    34 on RSL-arvutus
   Task   120 k-point    34 on RSL-arvutus
   Task   121 k-point    35 on RSL-arvutus
   Task   122 k-point    35 on RSL-arvutus
   Task   123 k-point    35 on RSL-arvutus
   Task   124 k-point    35 on RSL-arvutus
   Task   125 k-point    36 on RSL-arvutus
   Task   126 k-point    36 on RSL-arvutus
   Task   127 k-point    36 on RSL-arvutus
  K-point:     1 Tasks:     4 split into      2 X      2 BLACS grid
  Calculating block size based on n_basis =          222  max_nprow =            3  max_npcol =            2
  ScaLAPACK block size set to:           16
  Allocating        0.191 MB for ovlp_complex
  Allocating        0.191 MB for ham_complex
  Allocating        0.191 MB for eigenvec_complex
  Required Scalapack workspace - INTEGER:            1  REAL:             1  COMPLEX:            1
  Available memory per node after initialize_scalapack [GB]:   1033.44
  Available memory per node after aims_elsi_init_scf [GB]:   1033.44
  Available memory per node after initialize_fixed_grids [GB]:   1033.44
  Partitioning the integration grid into batches with parallel hashing+maxmin method.
  | Number of batches:      796
  | Maximal batch size:     198
  | Minimal batch size:       1
  | Average batch size:      89.776
  | Standard deviation of batch sizes:      26.207

  Integration load balanced across   128 MPI tasks.
  Work distribution over tasks is as follows:
  Task     0 has        587 integration points.
  Task     1 has        511 integration points.
  Task     2 has        560 integration points.
  Task     3 has        557 integration points.
  Task     4 has        555 integration points.
  Task     5 has        586 integration points.
  Task     6 has        581 integration points.
  Task     7 has        507 integration points.
  Task     8 has        591 integration points.
  Task     9 has        587 integration points.
  Task    10 has        557 integration points.
  Task    11 has        556 integration points.
  Task    12 has        562 integration points.
  Task    13 has        561 integration points.
  Task    14 has        586 integration points.
  Task    15 has        557 integration points.
  Task    16 has        564 integration points.
  Task    17 has        582 integration points.
  Task    18 has        581 integration points.
  Task    19 has        590 integration points.
  Task    20 has        584 integration points.
  Task    21 has        559 integration points.
  Task    22 has        554 integration points.
  Task    23 has        581 integration points.
  Task    24 has        583 integration points.
  Task    25 has        552 integration points.
  Task    26 has        584 integration points.
  Task    27 has        508 integration points.
  Task    28 has        557 integration points.
  Task    29 has        511 integration points.
  Task    30 has        533 integration points.
  Task    31 has        509 integration points.
  Task    32 has        562 integration points.
  Task    33 has        536 integration points.
  Task    34 has        583 integration points.
  Task    35 has        593 integration points.
  Task    36 has        583 integration points.
  Task    37 has        560 integration points.
  Task    38 has        583 integration points.
  Task    39 has        590 integration points.
  Task    40 has        554 integration points.
  Task    41 has        565 integration points.
  Task    42 has        560 integration points.
  Task    43 has        561 integration points.
  Task    44 has        557 integration points.
  Task    45 has        556 integration points.
  Task    46 has        559 integration points.
  Task    47 has        563 integration points.
  Task    48 has        536 integration points.
  Task    49 has        552 integration points.
  Task    50 has        587 integration points.
  Task    51 has        514 integration points.
  Task    52 has        564 integration points.
  Task    53 has        511 integration points.
  Task    54 has        559 integration points.
  Task    55 has        567 integration points.
  Task    56 has        558 integration points.
  Task    57 has        514 integration points.
  Task    58 has        551 integration points.
  Task    59 has        510 integration points.
  Task    60 has        586 integration points.
  Task    61 has        563 integration points.
  Task    62 has        591 integration points.
  Task    63 has        555 integration points.
  Task    64 has        576 integration points.
  Task    65 has        589 integration points.
  Task    66 has        586 integration points.
  Task    67 has        510 integration points.
  Task    68 has        584 integration points.
  Task    69 has        552 integration points.
  Task    70 has        553 integration points.
  Task    71 has        578 integration points.
  Task    72 has        577 integration points.
  Task    73 has        556 integration points.
  Task    74 has        539 integration points.
  Task    75 has        590 integration points.
  Task    76 has        580 integration points.
  Task    77 has        559 integration points.
  Task    78 has        564 integration points.
  Task    79 has        515 integration points.
  Task    80 has        550 integration points.
  Task    81 has        558 integration points.
  Task    82 has        586 integration points.
  Task    83 has        593 integration points.
  Task    84 has        555 integration points.
  Task    85 has        579 integration points.
  Task    86 has        588 integration points.
  Task    87 has        583 integration points.
  Task    88 has        591 integration points.
  Task    89 has        556 integration points.
  Task    90 has        581 integration points.
  Task    91 has        558 integration points.
  Task    92 has        560 integration points.
  Task    93 has        513 integration points.
  Task    94 has        509 integration points.
  Task    95 has        594 integration points.
  Task    96 has        558 integration points.
  Task    97 has        580 integration points.
  Task    98 has        561 integration points.
  Task    99 has        547 integration points.
  Task   100 has        560 integration points.
  Task   101 has        561 integration points.
  Task   102 has        513 integration points.
  Task   103 has        586 integration points.
  Task   104 has        509 integration points.
  Task   105 has        511 integration points.
  Task   106 has        588 integration points.
  Task   107 has        583 integration points.
  Task   108 has        583 integration points.
  Task   109 has        508 integration points.
  Task   110 has        504 integration points.
  Task   111 has        510 integration points.
  Task   112 has        563 integration points.
  Task   113 has        552 integration points.
  Task   114 has        556 integration points.
  Task   115 has        506 integration points.
  Task   116 has        577 integration points.
  Task   117 has        580 integration points.
  Task   118 has        558 integration points.
  Task   119 has        556 integration points.
  Task   120 has        511 integration points.
  Task   121 has        558 integration points.
  Task   122 has        512 integration points.
  Task   123 has        559 integration points.
  Task   124 has        507 integration points.
  Task   125 has        584 integration points.
  Task   126 has        586 integration points.
  Task   127 has        557 integration points.
  Available memory per node after partition_grid [GB]:   1033.44
  Initializing partition tables, free-atom densities, potentials, etc. across the integration grid (initialize_grid_storage).
  | initialize_grid_storage: Actual outermost partition radius vs. multipole_radius_free
  | (-- VB: in principle, multipole_radius_free should be larger, hence this output)
  | Species        1: Confinement radius =              4.999999999999999 AA, multipole_radius_free =              5.002391649902235 AA.
  | Species        1: outer_partition_radius set to              5.002391649902235 AA .
  | Species        2: Confinement radius =              4.999999999999999 AA, multipole_radius_free =              5.048384829883283 AA.
  | Species        2: outer_partition_radius set to              5.048384829883283 AA .
  | Species        3: Confinement radius =              4.999999999999999 AA, multipole_radius_free =              5.009370088163274 AA.
  | Species        3: outer_partition_radius set to              5.009370088163274 AA .
  | The sparse table of interatomic distances needs        596.62 kbyte instead of      1700.17 kbyte of memory.
  | Net number of integration points:    71462
  | of which are non-zero points    :    60715
  | Numerical average free-atom electrostatic potential    :     -5.45567179 eV
  Available memory per node after initialize_grid_storage_p1 [GB]:   1033.43
  Renormalizing the initial density to the exact electron count on the 3D integration grid.
  | Initial density: Formal number of electrons (from input files) :     145.0000000000
  | Integrated number of electrons on 3D grid     :     144.9997585358
  | Charge integration error                      :      -0.0002414642
  | Normalization factor for density and gradient :       1.0000016653
  Renormalizing the free-atom superposition density to the exact electron count on the 3D integration grid.
  | Formal number of electrons (from input files) :     144.0000000000
  | Integrated number of electrons on 3D grid     :     144.9997585358
  | Charge integration error                      :      -0.0002414642
  | Normalization factor for density and gradient :       1.0000016653
  Obtaining max. number of non-zero basis functions in each batch (get_n_compute_maxes).
  | Maximal number of non-zero basis functions:      641 in task     0
  | Maximal number of non-zero basis functions:      605 in task     1
  | Maximal number of non-zero basis functions:      650 in task     2
  | Maximal number of non-zero basis functions:      630 in task     3
  | Maximal number of non-zero basis functions:      612 in task     4
  | Maximal number of non-zero basis functions:      667 in task     5
  | Maximal number of non-zero basis functions:      635 in task     6
  | Maximal number of non-zero basis functions:      616 in task     7
  | Maximal number of non-zero basis functions:      627 in task     8
  | Maximal number of non-zero basis functions:      647 in task     9
  | Maximal number of non-zero basis functions:      638 in task    10
  | Maximal number of non-zero basis functions:      605 in task    11
  | Maximal number of non-zero basis functions:      634 in task    12
  | Maximal number of non-zero basis functions:      622 in task    13
  | Maximal number of non-zero basis functions:      620 in task    14
  | Maximal number of non-zero basis functions:      675 in task    15
  | Maximal number of non-zero basis functions:      644 in task    16
  | Maximal number of non-zero basis functions:      627 in task    17
  | Maximal number of non-zero basis functions:      638 in task    18
  | Maximal number of non-zero basis functions:      628 in task    19
  | Maximal number of non-zero basis functions:      668 in task    20
  | Maximal number of non-zero basis functions:      632 in task    21
  | Maximal number of non-zero basis functions:      648 in task    22
  | Maximal number of non-zero basis functions:      648 in task    23
  | Maximal number of non-zero basis functions:      674 in task    24
  | Maximal number of non-zero basis functions:      669 in task    25
  | Maximal number of non-zero basis functions:      622 in task    26
  | Maximal number of non-zero basis functions:      618 in task    27
  | Maximal number of non-zero basis functions:      644 in task    28
  | Maximal number of non-zero basis functions:      584 in task    29
  | Maximal number of non-zero basis functions:      663 in task    30
  | Maximal number of non-zero basis functions:      611 in task    31
  | Maximal number of non-zero basis functions:      671 in task    32
  | Maximal number of non-zero basis functions:      625 in task    33
  | Maximal number of non-zero basis functions:      631 in task    34
  | Maximal number of non-zero basis functions:      635 in task    35
  | Maximal number of non-zero basis functions:      645 in task    36
  | Maximal number of non-zero basis functions:      611 in task    37
  | Maximal number of non-zero basis functions:      682 in task    38
  | Maximal number of non-zero basis functions:      654 in task    39
  | Maximal number of non-zero basis functions:      616 in task    40
  | Maximal number of non-zero basis functions:      667 in task    41
  | Maximal number of non-zero basis functions:      609 in task    42
  | Maximal number of non-zero basis functions:      619 in task    43
  | Maximal number of non-zero basis functions:      591 in task    44
  | Maximal number of non-zero basis functions:      629 in task    45
  | Maximal number of non-zero basis functions:      634 in task    46
  | Maximal number of non-zero basis functions:      678 in task    47
  | Maximal number of non-zero basis functions:      634 in task    48
  | Maximal number of non-zero basis functions:      676 in task    49
  | Maximal number of non-zero basis functions:      646 in task    50
  | Maximal number of non-zero basis functions:      630 in task    51
  | Maximal number of non-zero basis functions:      628 in task    52
  | Maximal number of non-zero basis functions:      591 in task    53
  | Maximal number of non-zero basis functions:      695 in task    54
  | Maximal number of non-zero basis functions:      678 in task    55
  | Maximal number of non-zero basis functions:      654 in task    56
  | Maximal number of non-zero basis functions:      603 in task    57
  | Maximal number of non-zero basis functions:      634 in task    58
  | Maximal number of non-zero basis functions:      633 in task    59
  | Maximal number of non-zero basis functions:      698 in task    60
  | Maximal number of non-zero basis functions:      633 in task    61
  | Maximal number of non-zero basis functions:      676 in task    62
  | Maximal number of non-zero basis functions:      697 in task    63
  | Maximal number of non-zero basis functions:      654 in task    64
  | Maximal number of non-zero basis functions:      708 in task    65
  | Maximal number of non-zero basis functions:      629 in task    66
  | Maximal number of non-zero basis functions:      682 in task    67
  | Maximal number of non-zero basis functions:      643 in task    68
  | Maximal number of non-zero basis functions:      623 in task    69
  | Maximal number of non-zero basis functions:      617 in task    70
  | Maximal number of non-zero basis functions:      625 in task    71
  | Maximal number of non-zero basis functions:      666 in task    72
  | Maximal number of non-zero basis functions:      674 in task    73
[...]
      4       2.00000        -180.159871        -4902.39951
      5       2.00000         -24.625124         -670.08373
      6       2.00000         -20.003211         -544.31507
      7       2.00000         -19.988963         -543.92736
      8       2.00000         -19.961186         -543.17150
      9       2.00000         -19.950354         -542.87676
     10       2.00000         -19.049210         -518.35538
     11       2.00000         -19.013661         -517.38804
     12       2.00000         -18.994770         -516.87399
     13       2.00000         -18.968646         -516.16312
     14       2.00000         -18.968249         -516.15231
     15       2.00000         -18.937453         -515.31431
     16       2.00000         -16.594562         -451.56102
     17       2.00000         -16.591274         -451.47152
     18       2.00000         -16.591046         -451.46534
     19       2.00000         -16.583633         -451.26360
     20       2.00000         -16.575953         -451.05462
     21       2.00000         -16.574979         -451.02811
     22       2.00000         -16.549480         -450.33428
     23       2.00000         -16.548856         -450.31729
     24       2.00000         -16.547923         -450.29189
     25       2.00000         -16.538859         -450.04526
     26       2.00000         -16.538001         -450.02190
     27       2.00000         -16.537188         -449.99978
     28       2.00000          -2.552765          -69.46427
     29       2.00000          -2.542397          -69.18214
     30       2.00000          -2.495326          -67.90128
     31       2.00000          -2.484706          -67.61228
     32       2.00000          -1.688142          -45.93667
     33       2.00000          -1.679634          -45.70517
     34       2.00000          -1.679002          -45.68798
     35       2.00000          -1.672094          -45.50000
     36       2.00000          -1.670005          -45.44314
     37       2.00000          -1.660441          -45.18290
     38       2.00000          -1.624496          -44.20477
     39       2.00000          -1.620466          -44.09512
     40       2.00000          -1.618934          -44.05345
     41       2.00000          -1.613218          -43.89789
     42       2.00000          -1.612071          -43.86667
     43       2.00000          -1.605669          -43.69249
     44       2.00000          -1.404200          -38.21024
     45       2.00000          -1.109055          -30.17893
     46       2.00000          -1.082336          -29.45187
     47       2.00000          -1.055730          -28.72789
     48       2.00000          -1.016138          -27.65052
     49       2.00000          -0.977700          -26.60456
     50       2.00000          -0.973697          -26.49564
     51       2.00000          -0.766902          -20.86848
     52       2.00000          -0.734700          -19.99219
     53       2.00000          -0.719830          -19.58756
     54       2.00000          -0.635328          -17.28815
     55       2.00000          -0.612365          -16.66330
     56       2.00000          -0.602339          -16.39047
     57       2.00000          -0.588626          -16.01733
     58       2.00000          -0.584640          -15.90885
     59       2.00000          -0.559858          -15.23452
     60       2.00000          -0.550937          -14.99176
     61       2.00000          -0.538734          -14.65970
     62       2.00000          -0.505726          -13.76149
     63       2.00000          -0.492770          -13.40895
     64       2.00000          -0.467759          -12.72837
     65       2.00000          -0.466644          -12.69802
     66       2.00000          -0.453968          -12.35311
     67       2.00000          -0.445367          -12.11905
     68       2.00000          -0.438672          -11.93688
     69       2.00000          -0.436680          -11.88267
     70       1.87537          -0.414056          -11.26704
     71       1.75433          -0.413569          -11.25379
     72       0.44098          -0.411060          -11.18551
     73       0.00000          -0.404964          -11.01962
     74       0.00000          -0.397499          -10.81650
     75       0.00000          -0.385611          -10.49302
     76       0.00000          -0.379781          -10.33437
     77       0.00000          -0.377837          -10.28146
     78       0.00000          -0.370183          -10.07320
     79       0.00000          -0.363159           -9.88205
     80       0.00000          -0.346786           -9.43653
     81       0.00000          -0.334139           -9.09238
     82       0.00000          -0.322271           -8.76945
     83       0.00000          -0.318422           -8.66470
     84       0.00000          -0.306314           -8.33524
     85       0.00000          -0.294928           -8.02540
     86       0.00000          -0.286529           -7.79685
     87       0.00000          -0.280635           -7.63648
     88       0.00000          -0.260542           -7.08970
     89       0.00000          -0.254916           -6.93663
     90       0.00000          -0.228999           -6.23139
     91       0.00000          -0.218805           -5.95398
     92       0.00000          -0.170922           -4.65104
     93       0.00000          -0.169929           -4.62401
     94       0.00000          -0.164963           -4.48886
     95       0.00000          -0.162327           -4.41714
     96       0.00000          -0.055108           -1.49956
     97       0.00000          -0.034016           -0.92562
     98       0.00000          -0.016752           -0.45584
     99       0.00000           0.014519            0.39509
    100       0.00000           0.040548            1.10338
    101       0.00000           0.084941            2.31135
    102       0.00000           0.113674            3.09324
    103       0.00000           0.126575            3.44429
    104       0.00000           0.137426            3.73954
    105       0.00000           0.168514            4.58551
    106       0.00000           0.173202            4.71307
    107       0.00000           0.236787            6.44330
    108       0.00000           0.241711            6.57730
    109       0.00000           0.248775            6.76950
    110       0.00000           0.274202            7.46142
    111       0.00000           0.283692            7.71966
    112       0.00000           0.298654            8.12680
    113       0.00000           0.307641            8.37135
    114       0.00000           0.323023            8.78991
    115       0.00000           0.330280            8.98738

  What follows are estimated values for band gap, HOMO, LUMO, etc.
  | They are estimated on a discrete k-point grid and not necessarily exact.
  | For converged numbers, create a DOS and/or band structure plot on a denser k-grid.

  Highest occupied state (VBM) at    -11.21695358 eV (relative to internal zero)
  | Occupation number:      1.09468690
  | K-point:       3 at    0.000000    0.125000    0.000000 (in units of recip. lattice)

  Lowest unoccupied state (CBM) at   -11.19984204 eV (relative to internal zero)
  | Occupation number:      0.71508522
  | K-point:      36 at    0.750000    0.875000    0.500000 (in units of recip. lattice)

  ESTIMATED overall HOMO-LUMO gap:      0.01711154 eV between HOMO at k-point 3 and LUMO at k-point 36
  | This appears to be an indirect band gap.
  | Smallest direct gap :      0.04140245 eV for k_point 27 at    0.500000    0.250000    0.500000 (in units of recip. lattice)
  However, this system has fractional occupation numbers. Since we use a finite k-point grid,
  this material is metallic within the approximate finite broadening function (occupation_type)
  applied to determine the occupation numbers.

  | Chemical Potential                          :   -11.21274798 eV
  | Note that, for insulating systems, the printed 'chemical potential' value is not uniquely defined.
  | It can be anywhere in the energy gap, as long as it correctly separates occupied and unoccupied states.
  | In systems with a gap, the physically relevant chemical potential is the VBM or HOMO.

  Self-consistency cycle converged.


------------------------------------------------------------
  End self-consistency iteration #   136       :  max(cpu_time)    wall_clock(cpu1)
  | Time for this iteration                     :        0.166 s           0.167 s
  | Charge density update                       :        0.000 s           0.000 s
  | Density mixing                              :        0.065 s           0.064 s
  | Hartree multipole update                    :        0.002 s           0.002 s
  | Hartree multipole summation                 :        0.030 s           0.030 s
  | Integration                                 :        0.045 s           0.045 s
  | Solution of K.-S. eqns.                     :        0.024 s           0.024 s
  | Total energy evaluation                     :        0.000 s           0.000 s

  Partial memory accounting:
  | Current value for overall tracked memory usage:
  |   Minimum:        5.806 MB (on task 110)
  |   Maximum:        6.200 MB (on task   8)
  |   Average:        5.943 MB
  | Peak value for overall tracked memory usage:
  |   Minimum:       13.256 MB (on task 104 after allocating gradient_basis_wave)
  |   Maximum:       16.166 MB (on task  54 after allocating gradient_basis_wave)
  |   Average:       14.776 MB
  | Largest tracked array allocation so far:
  |   Minimum:        2.443 MB (gradient_basis_wave on task 104)
  |   Maximum:        3.824 MB (hamiltonian_shell on task  65)
  |   Average:        3.086 MB
  Note:  These values currently only include a subset of arrays which are explicitly tracked.
  The "true" memory usage will be greater.
------------------------------------------------------------

  Energy and forces in a compact form:
  | Total energy uncorrected      :         -0.108201248081141E+06 eV
  | Total energy corrected        :         -0.108201259899018E+06 eV  <-- do not rely on this value for anything but (periodic) metals
  | Electronic free energy        :         -0.108201271716895E+06 eV

  ------------------------------------ 
  Start decomposition of the XC Energy 
  ------------------------------------ 
  X and C from original XC functional choice 
  Hartree-Fock Energy :          0.000000000 Ha              0.000000000 eV
  X Energy            :       -224.230330940 Ha          -6101.617751775 eV
  C Energy            :         -5.673132749 Ha           -154.373796552 eV
  XC Energy w/o HF    :       -229.903463689 Ha          -6255.991548327 eV
  Total XC Energy     :       -229.903463689 Ha          -6255.991548327 eV
  ------------------------------------ 
  LDA X and C from self-consistent density 
  X Energy LDA        :       -208.164280890 Ha          -5664.438286467 eV
  C Energy LDA        :        -11.186940465 Ha           -304.412138378 eV
  ------------------------------------ 
  End decomposition of the XC Energy 
  ------------------------------------ 

------------------------------------------------------------

  ------------------------------------------------------------
                   Starting Mulliken Analysis
  ------------------------------------------------------------

  Performing Mulliken charge analysis on all atoms.
  Full analysis will be written to separate file 'Mulliken.out'.
  Summary of the per-atom charge analysis:
  |
  |  atom       electrons          charge             l=0             l=1             l=2             l=3
  |     1       21.175337        0.824663        6.368259       12.345991        2.405860        0.055228
  |     2       21.152215        0.847785        6.366401       12.370379        2.356184        0.059252
  |     3        9.431702       -0.431702        3.934197        5.478731        0.018774
  |     4        8.542089       -0.542089        3.850009        4.678438        0.013642
  |     5        8.604807       -0.604807        3.847569        4.746152        0.011087
  |     6        8.588886       -0.588886        3.854564        4.724180        0.010142
  |     7       20.850160        1.149840        6.028775       12.491994        2.190550        0.138841
  |     8       20.926298        1.073702        6.047797       12.507012        2.230825        0.140663
  |     9        8.586551       -0.586551        3.854488        4.721931        0.010131
  |    10        8.212112       -0.212112        3.904757        4.294191        0.013165
  |    11        7.929842        0.070158        3.962420        3.959308        0.008114
  |
  | Total      144.000000        1.000000
 
  Writing Mulliken decomposition to disk ...

  Mulliken analysis                                       :  max(cpu_time)    wall_clock(cpu1)
  | Time for Mulliken analysis                            :          0.130               0.130
  | Total time for Mulliken analysis                      :          0.130               0.130
------------------------------------------------------------

------------------------------------------------------------------------------
  Final output of selected total energy values:

  The following output summarizes some interesting total energy values
  at the end of a run (AFTER all relaxation, molecular dynamics, etc.).

  | Total energy of the DFT / Hartree-Fock s.c.f. calculation      :        -108201.248081141 eV
  | Final zero-broadening corrected energy (caution - metals only) :        -108201.259899018 eV
  | For reference only, the value of 1 Hartree used in FHI-aims is :             27.211384500 eV
  | For reference only, the overall average (free atom contribution
  | + realspace contribution) of the electrostatic potential after
  | s.c.f. convergence is                                          :             -5.918467668 eV

  Before relying on these values, please be sure to understand exactly which
  total energy value is referred to by a given number. Different objects may
  all carry the same name 'total energy'. Definitions:

  Total energy of the DFT / Hartree-Fock s.c.f. calculation:
  | Note that this energy does not include ANY quantities calculated after the
  | s.c.f. cycle, in particular not ANY RPA, MP2, etc. many-body perturbation terms.

  Final zero-broadening corrected energy:
  | For metallic systems only, a broadening of the occupation numbers at the Fermi
  | level can be extrapolated back to zero broadening by an electron-gas inspired
  | formula. For all systems that are not real metals, this value can be
  | meaningless and should be avoided.

------------------------------------------------------------------------------
  Methods described in the following list of references were used in this FHI-aims run.
  If you publish the results, please make sure to cite these reference if they apply.
  FHI-aims is an academic code, and for our developers (often, Ph.D. students
  and postdocs), scientific credit in the community is essential.
  Thank you for helping us!

  For any use of FHI-aims, please cite:

    Volker Blum, Ralf Gehrke, Felix Hanke, Paula Havu, Ville Havu,
    Xinguo Ren, Karsten Reuter, and Matthias Scheffler
    'Ab initio molecular simulations with numeric atom-centered orbitals'
    Computer Physics Communications 180, 2175-2196 (2009)
    http://doi.org/10.1016/j.cpc.2009.06.022


  The provided symmetry information was generated with SPGlib:

    Atsushi Togo, Yusuke Seto, Dimitar Pashov
    SPGlib 1.7.3 obtained from http://spglib.sourceforge.net
    Licence: New BSD license
    Copyright (C) 2008 Atsushi Togo


  The ELSI infrastructure was used in your run to solve the Kohn-Sham electronic structure.
  Please check out https://wordpress.elsi-interchange.org to learn more.
  If scalability is important for your project, please acknowledge ELSI by citing:

    V. W-z. Yu, F. Corsetti, A. Garcia, W. P. Huhn, M. Jacquelin, W. Jia,
    B. Lange, L. Lin, J. Lu, W. Mi, A. Seifitokaldani, A. Vazquez-Mayagoitia,
    C. Yang, H. Yang, and V. Blum
    'ELSI: A unified software interface for Kohn-Sham electronic structure solvers'
    Computer Physics Communications 222, 267-285 (2018).
    http://doi.org/10.1016/j.cpc.2017.09.007


  For the real-space grid partitioning and parallelization used in this calculation, please cite:

    Ville Havu, Volker Blum, Paula Havu, and Matthias Scheffler,
    'Efficient O(N) integration for all-electron electronic structure calculation'
    'using numerically tabulated basis functions'
    Journal of Computational Physics 228, 8367-8379 (2009).
    http://doi.org/10.1016/j.jcp.2009.08.008

  Of course, there are many other important community references, e.g., those cited in the
  above references. Our list is limited to references that describe implementations in the
  FHI-aims code. The reason is purely practical (length of this list) - please credit others as well.

   One or more s.c.f. cycles took more than 50 s.c.f. iterations.
   It might be worth adjusting your convergence settings. For example,
   metals need a larger broadening and a smaller "charge_mix_param" value than semiconductors.

------------------------------------------------------------
          Leaving FHI-aims.
          Date     :  20241003, Time     :  094557.834

          Computational steps:
          | Number of self-consistency cycles          :          136
          | Number of SCF (re)initializations          :            1

          Detailed time accounting                     :  max(cpu_time)    wall_clock(cpu1)
          | Total time                                  :       34.271 s          34.272 s
          | Preparation time                            :        0.404 s           0.399 s
          | Boundary condition initalization            :        0.061 s           0.062 s
          | Grid partitioning                           :        0.026 s           0.026 s
          | Preloading free-atom quantities on grid     :        0.039 s           0.039 s
          | Free-atom superposition energy              :        0.003 s           0.003 s
          | Total time for integrations                 :        6.121 s           6.121 s
          | Total time for solution of K.-S. equations  :        3.408 s           3.414 s
          | Total time for density update               :       11.553 s          11.551 s
          | Total time for mixing & preconditioning     :        8.766 s           8.762 s
          | Total time for Hartree multipole update     :        0.207 s           0.203 s
          | Total time for Hartree multipole sum        :        3.326 s           3.326 s
          | Total time for total energy evaluation      :        0.028 s           0.023 s
          | Total time for scaled ZORA corrections      :        0.000 s           0.000 s
          | Total time for Mulliken analysis            :        0.130 s           0.130 s

          Partial memory accounting:
          | Residual value for overall tracked memory usage across tasks:     0.000000 MB (should be 0.000000 MB)
          | Peak values for overall tracked memory usage:
          |   Minimum:       13.256 MB (on task 104 after allocating gradient_basis_wave)
          |   Maximum:       16.166 MB (on task  54 after allocating gradient_basis_wave)
          |   Average:       14.776 MB
          | Largest tracked array allocation:
          |   Minimum:        2.443 MB (gradient_basis_wave on task 104)
          |   Maximum:        3.824 MB (hamiltonian_shell on task  65)
          |   Average:        3.086 MB
          Note:  These values currently only include a subset of arrays which are explicitly tracked.
          The "true" memory usage will be greater.

          Have a nice day.
------------------------------------------------------------
