------------------------------------------------------------
          Invoking FHI-aims ...

          When using FHI-aims, please cite the following reference:

            Volker Blum, Ralf Gehrke, Felix Hanke, Paula Havu,
            Ville Havu, Xinguo Ren, Karsten Reuter, and Matthias Scheffler,
            'Ab Initio Molecular Simulations with Numeric Atom-Centered Orbitals',
            Computer Physics Communications 180, 2175-2196 (2009)

          In addition, many other developments in FHI-aims are likely important for
          your particular application. If so, please cite them. A partial list of references
          is written at the end of this file. Thank you for giving credit to the authors
          of these developments.

          For general information about FHI-aims please find us at

            https://fhi-aims.org

          Online tutorials can be found at

            https://fhi-aims-club.gitlab.io/tutorials/tutorials-overview/

          For any questions about FHI-aims, please visit our slack channel at

            https://fhi-aims.slack.com

          and our main development and support site at

            https://aims-git.rz-berlin.mpg.de .

          The latter site, in particular, has a wiki to collect information, as well
          as an issue tracker to log discussions, suggest improvements, and report issues
          or bugs. https://aims-git.rz-berlin.mpg.de is also the main development site
          of the project and all new and updated code versions can be obtained there.
          Please send an email to aims-coordinators@fhi-berlin.mpg.de and we will add
          you to these sites. They are for you and everyone is welcome there.

------------------------------------------------------------



  Date     :  20241006, Time     :  174309.840
  Time zero on CPU 1             :   0.360394000000000E+00  s.
  Internal wall clock time zero  :           497468589.840  s.

  FHI-aims created a unique identifier for this run for later identification
  aims_uuid : 7B405754-03FE-4A45-A211-1F4D2061C77C

  Build configuration of the current instance of FHI-aims
  -------------------------------------------------------
  FHI-aims version      : 240605
  Commit number         : b001b2e18
  CMake host system     : Linux-6.5.0-41-generic
  CMake version         : 3.22.1
  Fortran compiler      : /opt/intel/oneapi/mpi/2021.12/bin/mpiifort (IntelLLVM) version 2024.1.0
  Fortran compiler flags: -fc=ifx -O3 -ip -fp-model precise
  C compiler            : /opt/intel/oneapi/mpi/2021.12/bin/mpiicc (IntelLLVM) version 2024.1.0
  C compiler flags      : -cc=icx -O3 -ip -fp-model precise -std=gnu99
  C++ compiler          : /opt/intel/oneapi/mpi/2021.12/bin/mpiicpc (IntelLLVM) version 2024.1.0
  C++ compiler flags    : -cxx=icpx -O3 -ip -fp-model precise -std=c++11
  HIP compiler          :
  HIP compiler flags    :
  HIP GPU arch          :
  Using MPI
  Using ScaLAPACK
  Using LibXC
  Using i-PI
  Using RLSY
  Linking against: /opt/intel/oneapi/mkl/2024.1/lib/intel64/libmkl_intel_lp64.so
                   /opt/intel/oneapi/mkl/2024.1/lib/intel64/libmkl_sequential.so
                   /opt/intel/oneapi/mkl/2024.1/lib/intel64/libmkl_core.so
                   /opt/intel/oneapi/mkl/2024.1/lib/intel64/libmkl_blacs_intelmpi_lp64.so
                   /opt/intel/oneapi/mkl/2024.1/lib/intel64/libmkl_scalapack_lp64.so
                   /opt/intel/oneapi/mkl/2024.1/lib/intel64/libmkl_core.so

  Using       32 parallel tasks.
  Task        0 on host RSL-arvutus reporting.
  Task        1 on host RSL-arvutus reporting.
  Task        2 on host RSL-arvutus reporting.
  Task        3 on host RSL-arvutus reporting.
  Task        4 on host RSL-arvutus reporting.
  Task        5 on host RSL-arvutus reporting.
  Task        6 on host RSL-arvutus reporting.
  Task        7 on host RSL-arvutus reporting.
  Task        8 on host RSL-arvutus reporting.
  Task        9 on host RSL-arvutus reporting.
  Task       10 on host RSL-arvutus reporting.
  Task       11 on host RSL-arvutus reporting.
  Task       12 on host RSL-arvutus reporting.
  Task       13 on host RSL-arvutus reporting.
  Task       14 on host RSL-arvutus reporting.
  Task       15 on host RSL-arvutus reporting.
  Task       16 on host RSL-arvutus reporting.
  Task       17 on host RSL-arvutus reporting.
  Task       18 on host RSL-arvutus reporting.
  Task       19 on host RSL-arvutus reporting.
  Task       20 on host RSL-arvutus reporting.
  Task       21 on host RSL-arvutus reporting.
  Task       22 on host RSL-arvutus reporting.
  Task       23 on host RSL-arvutus reporting.
  Task       24 on host RSL-arvutus reporting.
  Task       25 on host RSL-arvutus reporting.
  Task       26 on host RSL-arvutus reporting.
  Task       27 on host RSL-arvutus reporting.
  Task       28 on host RSL-arvutus reporting.
  Task       29 on host RSL-arvutus reporting.
  Task       30 on host RSL-arvutus reporting.
  Task       31 on host RSL-arvutus reporting.

  Memory overcommitment is allowed on your operating system.

  Obtaining array dimensions for all initial allocations:
  
  -----------------------------------------------------------------------
  Parsing control.in (first pass over file, find array dimensions only).
  The contents of control.in will be repeated verbatim below
  unless switched off by setting 'verbatim_writeout .false.' .
  in the first line of control.in .
  -----------------------------------------------------------------------
  
    xc              pbe
    relativistic    atomic_zora scalar
    k_grid          1 2 1
  
    charge	  1.0
    output          Mulliken
  
  
  ################################################################################
  #
  #  FHI-aims code project
  #  VB, Fritz-Haber Institut, 2009
  #
  #  Suggested "light" defaults for Ti atom (to be pasted into control.in file)
  #  Be sure to double-check any results obtained with these settings for post-processing,
  #  e.g., with the "tight" defaults and larger basis sets.
  #
  ################################################################################
    species        Ti
  #     global species definitions
      nucleus             22
      mass                47.867
  #
      l_hartree           4
  #
      cut_pot             3.5          1.5  1.0
      basis_dep_cutoff    1e-4
  #
      radial_base         48 5.0
      radial_multiplier   1
      angular_grids       specified
        division   0.5171   50
        division   0.9824  110
        division   1.2917  194
        division   1.4940  302
  #      division   1.6934  434
  #      division   1.8425  590
  #      division   2.1901  770
  #      division   2.2896  974
  #      division   2.8244 1202
  #      outer_grid  974
        outer_grid  302
  ################################################################################
  #
  #  Definition of "minimal" basis
  #
  ################################################################################
  #     valence basis states
      valence      4  s   2.
      valence      3  p   6.
      valence      3  d   2.
  #     ion occupancy
      ion_occ      4  s   1.
      ion_occ      3  p   6.
      ion_occ      3  d   1.
  ################################################################################
  #
  #  Suggested additional basis functions. For production calculations,
  #  uncomment them one after another (the most important basis functions are
  #  listed first).
  #
  #  Constructed for dimers: 1.6 A, 1.85 A, 2.5 A, 3.25 A, 4.25 A
  #
  ################################################################################
  #  "First tier" - improvements: -396.25 meV to -19.41 meV
       hydro 4 f 8
       hydro 3 d 2.7
       ionic 4 p auto
  #     hydro 5 g 11.6
       ionic 4 s auto
  #  "Second tier" - improvements: -16.30 meV to -2.03 meV
  #     hydro 3 d 4.4
  #     hydro 6 h 16
  #     hydro 4 f 9.4
  #     hydro 4 p 4.5
  #     hydro 1 s 0.5
  #  "Third tier" - improvements: -6.28 meV to -0.37 meV
  #     hydro 4 d 6.4
  #     hydro 4 f 10
  #     hydro 5 g 12
  #     hydro 2 p 1.7
  #     hydro 6 h 16.4
  #     hydro 4 s 3.8
  #  Further basis functions: -0.45 meV and smaller improvements
  #     hydro 3 d 8.8
  #     hydro 5 p 18
  #     hydro 4 f 22.4
  #     hydro 5 f 7.2  # -0.16 meV
  #     hydro 3 d 2.1  # -0.11 meV
  #     hydro 5 g 7.4  # -0.09 meV
  
  
  ################################################################################
  #
  #  FHI-aims code project
  #  VB, Fritz-Haber Institut, 2009
  #
  #  Suggested "light" defaults for O atom (to be pasted into control.in file)
  #  Be sure to double-check any results obtained with these settings for post-processing,
  #  e.g., with the "tight" defaults and larger basis sets.
  #
  ################################################################################
    species        O
  #     global species definitions
      nucleus             8
      mass                15.9994
  #
      l_hartree           4
  #
      cut_pot             3.5  1.5  1.0
      basis_dep_cutoff    1e-4
  #
      radial_base         36 5.0
      radial_multiplier   1
       angular_grids specified
        division   0.2659   50
        division   0.4451  110
        division   0.6052  194
        division   0.7543  302
  #      division   0.8014  434
  #      division   0.8507  590
  #      division   0.8762  770
  #      division   0.9023  974
  #      division   1.2339 1202
  #      outer_grid 974
        outer_grid 302
  ################################################################################
  #
  #  Definition of "minimal" basis
  #
  ################################################################################
  #     valence basis states
      valence      2  s   2.
      valence      2  p   4.
  #     ion occupancy
      ion_occ      2  s   1.
      ion_occ      2  p   3.
  ################################################################################
  #
  #  Suggested additional basis functions. For production calculations,
  #  uncomment them one after another (the most important basis functions are
  #  listed first).
  #
  #  Constructed for dimers: 1.0 A, 1.208 A, 1.5 A, 2.0 A, 3.0 A
  #
  ################################################################################
  #  "First tier" - improvements: -699.05 meV to -159.38 meV
       hydro 2 p 1.8
       hydro 3 d 7.6
       hydro 3 s 6.4
  #  "Second tier" - improvements: -49.91 meV to -5.39 meV
  #     hydro 4 f 11.6
  #     hydro 3 p 6.2
  #     hydro 3 d 5.6
  #     hydro 5 g 17.6
  #     hydro 1 s 0.75
  #  "Third tier" - improvements: -2.83 meV to -0.50 meV
  #     ionic 2 p auto
  #     hydro 4 f 10.8
  #     hydro 4 d 4.7
  #     hydro 2 s 6.8
  #  "Fourth tier" - improvements: -0.40 meV to -0.12 meV
  #     hydro 3 p 5
  #     hydro 3 s 3.3
  #     hydro 5 g 15.6
  #     hydro 4 f 17.6
  #     hydro 4 d 14
  # Further basis functions - -0.08 meV and below
  #     hydro 3 s 2.1
  #     hydro 4 d 11.6
  #     hydro 3 p 16
  #     hydro 2 s 17.2
  ################################################################################
  #
  #  FHI-aims code project
  #  VB, Fritz-Haber Institut, 2009
  #
  #  Suggested "light" defaults for F atom (to be pasted into control.in file)
  #  Be sure to double-check any results obtained with these settings for post-processing,
  #  e.g., with the "tight" defaults and larger basis sets.
  #
  ################################################################################
    species        F
  #     global species definitions
      nucleus             9
      mass                18.9984032
  #
      l_hartree           4
  #
      cut_pot             3.5  1.5  1.0
      basis_dep_cutoff    1e-4
  #
      radial_base         37 5.0
      radial_multiplier   1
      angular_grids specified
        division   0.4014  110
        division   0.5291  194
        division   0.6019  302
  #      division   0.6814  434
  #      division   0.7989  590
  #      division   0.8965  770
  #      division   1.3427  974
  #      outer_grid   974
        outer_grid   302
  ################################################################################
  #
  #  Definition of "minimal" basis
  #
  ################################################################################
  #     valence basis states
      valence      2  s   2.
      valence      2  p   5.
  #     ion occupancy
      ion_occ      2  s   1.
      ion_occ      2  p   4.
  ################################################################################
  #
  #  Suggested additional basis functions. For production calculations,
  #  uncomment them one after another (the most important basis functions are
  #  listed first).
  #
  #  Constructed for dimers: 1.2 A, 1.418 A, 1.75 A, 2.25 A, 3.25 A
  #
  ################################################################################
  #  "First tier" - improvements: -149.44 meV to -45.88 meV
       hydro 2 p 1.7
       hydro 3 d 7.4
       hydro 3 s 6.8
  #  "Second tier" - improvements: -12.96 meV to -1.56 meV
  #     hydro 4 f 11.2
  #     ionic 2 p auto
  #     hydro 1 s 0.75
  #     hydro 4 d 8.8
  #     hydro 5 g 16.8
  #  "Third tier" - improvements: -0.58 meV to -0.05 meV
  #     hydro 3 p 6.2
  #     hydro 3 s 3.2
  #     hydro 4 f 9.6
  #     hydro 3 s 19.6
  #     hydro 4 d 8.6
  #     hydro 5 g 14.4
  # Further basis functions: -0.05 meV and below
  #     hydro 3 p 4.2
  
  -----------------------------------------------------------------------
  Completed first pass over input file control.in .
  -----------------------------------------------------------------------
  
  
  -----------------------------------------------------------------------
  Parsing geometry.in (first pass over file, find array dimensions only).
  The contents of geometry.in will be repeated verbatim below
  unless switched off by setting 'verbatim_writeout .false.' .
  in the first line of geometry.in .
  -----------------------------------------------------------------------
  
  lattice_vector 26.264506 0.000000 0.000000
  lattice_vector 0.000000 11.891531 0.000000
  lattice_vector 0.000000 0.000000 84.989115
  
  atom 26.264506 0.000000 30.000000 Ti
  atom 3.283063 1.486441 30.000000 Ti
  atom 1.276729 1.486441 30.000029 F
  atom 3.283086 0.000000 31.276767 O
  atom 6.566086 0.000000 32.006468 O
  atom 2.006317 1.486441 33.283206 O
  atom 3.283046 0.000000 33.283235 Ti
  atom 6.566109 1.486441 33.283235 Ti
  atom 4.559775 1.486441 33.283265 O
  atom 0.000005 0.000000 34.560002 O
  atom 3.283006 0.000000 35.289704 O
  atom 5.289362 1.486441 36.566441 O
  atom 6.566091 0.000000 36.566471 Ti
  atom 3.283028 1.486441 36.566471 Ti
  atom 1.276694 1.486441 36.566500 O
  atom 3.283051 0.000000 37.843237 O
  atom 6.566051 0.000000 38.572939 O
  atom 2.006281 1.486441 39.849676 O
  atom 3.283010 0.000000 39.849706 Ti
  atom 6.566074 1.486441 39.849706 Ti
  atom 4.559740 1.486441 39.849735 O
  atom 6.566096 0.000000 41.126473 O
  atom 3.282970 0.000000 41.856174 O
  atom 5.289327 1.486441 43.132912 O
  atom 6.566056 0.000000 43.132941 Ti
  atom 3.282993 1.486441 43.132941 Ti
  atom 1.276659 1.486441 43.132970 O
  atom 3.283015 0.000000 44.409708 O
  atom 6.566016 0.000000 45.139409 O
  atom 2.006246 1.486441 46.416147 O
  atom 3.282975 0.000000 46.416176 Ti
  atom 6.566039 1.486441 46.416176 Ti
  atom 4.559704 1.486441 46.416206 O
  atom 6.566061 0.000000 47.692943 O
  atom 3.282935 0.000000 48.422645 O
  atom 5.289292 1.486441 49.699382 O
  atom 6.566021 0.000000 49.699412 Ti
  atom 3.282958 1.486441 49.699412 Ti
  atom 1.276623 1.486441 49.699441 O
  atom 3.282980 0.000000 50.976178 O
  atom 6.565981 0.000000 51.705880 O
  atom 2.006211 1.486441 52.982617 O
  atom 3.282940 0.000000 52.982647 Ti
  atom 6.566003 1.486441 52.982647 Ti
  atom 4.559669 1.486441 52.982676 O
  atom 6.566026 0.000000 54.259414 O
  atom 3.282900 0.000000 54.989115 O
  atom 26.264506 2.972883 30.000000 Ti
  atom 3.283063 4.459324 30.000000 Ti
  atom 1.276729 4.459324 30.000029 O
  atom 3.283086 2.972883 31.276767 O
  atom 6.566086 2.972883 32.006468 O
  atom 2.006317 4.459324 33.283206 O
  atom 3.283046 2.972883 33.283235 Ti
  atom 6.566109 4.459324 33.283235 Ti
  atom 4.559775 4.459324 33.283265 O
  atom 0.000005 2.972883 34.560002 O
  atom 3.283006 2.972883 35.289704 O
  atom 5.289362 4.459324 36.566441 O
  atom 6.566091 2.972883 36.566471 Ti
  atom 3.283028 4.459324 36.566471 Ti
  atom 1.276694 4.459324 36.566500 O
  atom 3.283051 2.972883 37.843237 O
  atom 6.566051 2.972883 38.572939 O
  atom 2.006281 4.459324 39.849676 O
  atom 3.283010 2.972883 39.849706 Ti
  atom 6.566074 4.459324 39.849706 Ti
  atom 4.559740 4.459324 39.849735 O
  atom 6.566096 2.972883 41.126473 O
  atom 3.282970 2.972883 41.856174 O
  atom 5.289327 4.459324 43.132912 O
  atom 6.566056 2.972883 43.132941 Ti
  atom 3.282993 4.459324 43.132941 Ti
  atom 1.276659 4.459324 43.132970 O
  atom 3.283015 2.972883 44.409708 O
  atom 6.566016 2.972883 45.139409 O
  atom 2.006246 4.459324 46.416147 O
  atom 3.282975 2.972883 46.416176 Ti
  atom 6.566039 4.459324 46.416176 Ti
  atom 4.559704 4.459324 46.416206 O
  atom 6.566061 2.972883 47.692943 O
  atom 3.282935 2.972883 48.422645 O
  atom 5.289292 4.459324 49.699382 O
  atom 6.566021 2.972883 49.699412 Ti
  atom 3.282958 4.459324 49.699412 Ti
  atom 1.276623 4.459324 49.699441 O
  atom 3.282980 2.972883 50.976178 O
  atom 6.565981 2.972883 51.705880 O
  atom 2.006211 4.459324 52.982617 O
  atom 3.282940 2.972883 52.982647 Ti
  atom 6.566003 4.459324 52.982647 Ti
  atom 4.559669 4.459324 52.982676 O
  atom 6.566026 2.972883 54.259414 O
  atom 3.282900 2.972883 54.989115 O
  atom 26.264506 5.945765 30.000000 Ti
  atom 3.283063 7.432207 30.000000 Ti
  atom 1.276729 7.432207 30.000029 O
  atom 3.283086 5.945765 31.276767 O
  atom 6.566086 5.945765 32.006468 O
  atom 2.006317 7.432207 33.283206 O
  atom 3.283046 5.945765 33.283235 Ti
  atom 6.566109 7.432207 33.283235 Ti
  atom 4.559775 7.432207 33.283265 O
  atom 0.000005 5.945765 34.560002 O
  atom 3.283006 5.945765 35.289704 O
  atom 5.289362 7.432207 36.566441 O
  atom 6.566091 5.945765 36.566471 Ti
  atom 3.283028 7.432207 36.566471 Ti
  atom 1.276694 7.432207 36.566500 O
  atom 3.283051 5.945765 37.843237 O
  atom 6.566051 5.945765 38.572939 O
  atom 2.006281 7.432207 39.849676 O
  atom 3.283010 5.945765 39.849706 Ti
  atom 6.566074 7.432207 39.849706 Ti
  atom 4.559740 7.432207 39.849735 O
  atom 6.566096 5.945765 41.126473 O
  atom 3.282970 5.945765 41.856174 O
  atom 5.289327 7.432207 43.132912 O
  atom 6.566056 5.945765 43.132941 Ti
  atom 3.282993 7.432207 43.132941 Ti
  atom 1.276659 7.432207 43.132970 O
  atom 3.283015 5.945765 44.409708 O
  atom 6.566016 5.945765 45.139409 O
  atom 2.006246 7.432207 46.416147 O
  atom 3.282975 5.945765 46.416176 Ti
  atom 6.566039 7.432207 46.416176 Ti
  atom 4.559704 7.432207 46.416206 O
  atom 6.566061 5.945765 47.692943 O
  atom 3.282935 5.945765 48.422645 O
  atom 5.289292 7.432207 49.699382 O
  atom 6.566021 5.945765 49.699412 Ti
  atom 3.282958 7.432207 49.699412 Ti
  atom 1.276623 7.432207 49.699441 O
  atom 3.282980 5.945765 50.976178 O
  atom 6.565981 5.945765 51.705880 O
  atom 2.006211 7.432207 52.982617 O
  atom 3.282940 5.945765 52.982647 Ti
  atom 6.566003 7.432207 52.982647 Ti
  atom 4.559669 7.432207 52.982676 O
  atom 6.566026 5.945765 54.259414 O
  atom 3.282900 5.945765 54.989115 O
  atom 26.264506 8.918648 30.000000 Ti
  atom 3.283063 10.405089 30.000000 Ti
  atom 1.276729 10.405089 30.000029 O
  atom 3.283086 8.918648 31.276767 O
  atom 6.566086 8.918648 32.006468 O
  atom 2.006317 10.405089 33.283206 O
  atom 3.283046 8.918648 33.283235 Ti
  atom 6.566109 10.405089 33.283235 Ti
  atom 4.559775 10.405089 33.283265 O
  atom 0.000005 8.918648 34.560002 O
  atom 3.283006 8.918648 35.289704 O
  atom 5.289362 10.405089 36.566441 O
  atom 6.566091 8.918648 36.566471 Ti
  atom 3.283028 10.405089 36.566471 Ti
  atom 1.276694 10.405089 36.566500 O
  atom 3.283051 8.918648 37.843237 O
  atom 6.566051 8.918648 38.572939 O
  atom 2.006281 10.405089 39.849676 O
  atom 3.283010 8.918648 39.849706 Ti
  atom 6.566074 10.405089 39.849706 Ti
  atom 4.559740 10.405089 39.849735 O
  atom 6.566096 8.918648 41.126473 O
  atom 3.282970 8.918648 41.856174 O
  atom 5.289327 10.405089 43.132912 O
  atom 6.566056 8.918648 43.132941 Ti
  atom 3.282993 10.405089 43.132941 Ti
  atom 1.276659 10.405089 43.132970 O
  atom 3.283015 8.918648 44.409708 O
  atom 6.566016 8.918648 45.139409 O
  atom 2.006246 10.405089 46.416147 O
  atom 3.282975 8.918648 46.416176 Ti
  atom 6.566039 10.405089 46.416176 Ti
  atom 4.559704 10.405089 46.416206 O
  atom 6.566061 8.918648 47.692943 O
  atom 3.282935 8.918648 48.422645 O
  atom 5.289292 10.405089 49.699382 O
  atom 6.566021 8.918648 49.699412 Ti
  atom 3.282958 10.405089 49.699412 Ti
  atom 1.276623 10.405089 49.699441 O
  atom 3.282980 8.918648 50.976178 O
  atom 6.565981 8.918648 51.705880 O
  atom 2.006211 10.405089 52.982617 O
  atom 3.282940 8.918648 52.982647 Ti
  atom 6.566003 10.405089 52.982647 Ti
  atom 4.559669 10.405089 52.982676 O
  atom 6.566026 8.918648 54.259414 O
  atom 3.282900 8.918648 54.989115 O
  atom 6.566126 0.000000 30.000000 Ti
  atom 9.849190 1.486441 30.000000 Ti
  atom 7.842856 1.486441 30.000029 O
  atom 9.849212 0.000000 31.276767 O
  atom 13.132213 0.000000 32.006468 O
  atom 8.572443 1.486441 33.283206 O
  atom 9.849172 0.000000 33.283235 Ti
  atom 13.132235 1.486441 33.283235 Ti
  atom 11.125901 1.486441 33.283265 O
  atom 6.566131 0.000000 34.560002 O
  atom 9.849132 0.000000 35.289704 O
  atom 11.855489 1.486441 36.566441 O
  atom 13.132218 0.000000 36.566471 Ti
  atom 9.849155 1.486441 36.566471 Ti
  atom 7.842820 1.486441 36.566500 O
  atom 9.849177 0.000000 37.843237 O
  atom 13.132178 0.000000 38.572939 O
  atom 8.572408 1.486441 39.849676 O
  atom 9.849137 0.000000 39.849706 Ti
  atom 13.132200 1.486441 39.849706 Ti
  atom 11.125866 1.486441 39.849735 O
  atom 13.132223 0.000000 41.126473 O
  atom 9.849097 0.000000 41.856174 O
  atom 11.855454 1.486441 43.132912 O
  atom 13.132183 0.000000 43.132941 Ti
  atom 9.849119 1.486441 43.132941 Ti
  atom 7.842785 1.486441 43.132970 O
  atom 9.849142 0.000000 44.409708 O
  atom 13.132143 0.000000 45.139409 O
  atom 8.572373 1.486441 46.416147 O
  atom 9.849102 0.000000 46.416176 Ti
  atom 13.132165 1.486441 46.416176 Ti
  atom 11.125831 1.486441 46.416206 O
  atom 13.132188 0.000000 47.692943 O
  atom 9.849062 0.000000 48.422645 O
  atom 11.855418 1.486441 49.699382 O
  atom 13.132147 0.000000 49.699412 Ti
  atom 9.849084 1.486441 49.699412 Ti
  atom 7.842750 1.486441 49.699441 O
  atom 9.849107 0.000000 50.976178 O
  atom 13.132107 0.000000 51.705880 O
  atom 8.572338 1.486441 52.982617 O
  atom 9.849067 0.000000 52.982647 Ti
  atom 13.132130 1.486441 52.982647 Ti
  atom 11.125796 1.486441 52.982676 O
  atom 13.132152 0.000000 54.259414 O
  atom 9.849026 0.000000 54.989115 O
  atom 6.566126 2.972883 30.000000 Ti
  atom 9.849190 4.459324 30.000000 Ti
  atom 7.842856 4.459324 30.000029 O
  atom 9.849212 2.972883 31.276767 O
  atom 13.132213 2.972883 32.006468 O
  atom 8.572443 4.459324 33.283206 O
  atom 9.849172 2.972883 33.283235 Ti
  atom 13.132235 4.459324 33.283235 Ti
  atom 11.125901 4.459324 33.283265 O
  atom 6.566131 2.972883 34.560002 O
  atom 9.849132 2.972883 35.289704 O
  atom 11.855489 4.459324 36.566441 O
  atom 13.132218 2.972883 36.566471 Ti
  atom 9.849155 4.459324 36.566471 Ti
  atom 7.842820 4.459324 36.566500 O
  atom 9.849177 2.972883 37.843237 O
  atom 13.132178 2.972883 38.572939 O
  atom 8.572408 4.459324 39.849676 O
  atom 9.849137 2.972883 39.849706 Ti
  atom 13.132200 4.459324 39.849706 Ti
  atom 11.125866 4.459324 39.849735 O
  atom 13.132223 2.972883 41.126473 O
  atom 9.849097 2.972883 41.856174 O
  atom 11.855454 4.459324 43.132912 O
  atom 13.132183 2.972883 43.132941 Ti
  atom 9.849119 4.459324 43.132941 Ti
  atom 7.842785 4.459324 43.132970 O
  atom 9.849142 2.972883 44.409708 O
  atom 13.132143 2.972883 45.139409 O
  atom 8.572373 4.459324 46.416147 O
  atom 9.849102 2.972883 46.416176 Ti
  atom 13.132165 4.459324 46.416176 Ti
  atom 11.125831 4.459324 46.416206 O
  atom 13.132188 2.972883 47.692943 O
  atom 9.849062 2.972883 48.422645 O
  atom 11.855418 4.459324 49.699382 O
  atom 13.132147 2.972883 49.699412 Ti
  atom 9.849084 4.459324 49.699412 Ti
  atom 7.842750 4.459324 49.699441 O
  atom 9.849107 2.972883 50.976178 O
  atom 13.132107 2.972883 51.705880 O
  atom 8.572338 4.459324 52.982617 O
  atom 9.849067 2.972883 52.982647 Ti
  atom 13.132130 4.459324 52.982647 Ti
  atom 11.125796 4.459324 52.982676 O
  atom 13.132152 2.972883 54.259414 O
  atom 9.849026 2.972883 54.989115 O
  atom 6.566126 5.945765 30.000000 Ti
  atom 9.849190 7.432207 30.000000 Ti
  atom 7.842856 7.432207 30.000029 O
  atom 9.849212 5.945765 31.276767 O
  atom 13.132213 5.945765 32.006468 O
  atom 8.572443 7.432207 33.283206 O
  atom 9.849172 5.945765 33.283235 Ti
  atom 13.132235 7.432207 33.283235 Ti
  atom 11.125901 7.432207 33.283265 O
  atom 6.566131 5.945765 34.560002 O
  atom 9.849132 5.945765 35.289704 O
  atom 11.855489 7.432207 36.566441 O
  atom 13.132218 5.945765 36.566471 Ti
  atom 9.849155 7.432207 36.566471 Ti
  atom 7.842820 7.432207 36.566500 O
  atom 9.849177 5.945765 37.843237 O
  atom 13.132178 5.945765 38.572939 O
  atom 8.572408 7.432207 39.849676 O
  atom 9.849137 5.945765 39.849706 Ti
  atom 13.132200 7.432207 39.849706 Ti
  atom 11.125866 7.432207 39.849735 O
  atom 13.132223 5.945765 41.126473 O
  atom 9.849097 5.945765 41.856174 O
  atom 11.855454 7.432207 43.132912 O
  atom 13.132183 5.945765 43.132941 Ti
  atom 9.849119 7.432207 43.132941 Ti
  atom 7.842785 7.432207 43.132970 O
  atom 9.849142 5.945765 44.409708 O
  atom 13.132143 5.945765 45.139409 O
  atom 8.572373 7.432207 46.416147 O
  atom 9.849102 5.945765 46.416176 Ti
  atom 13.132165 7.432207 46.416176 Ti
  atom 11.125831 7.432207 46.416206 O
  atom 13.132188 5.945765 47.692943 O
  atom 9.849062 5.945765 48.422645 O
  atom 11.855418 7.432207 49.699382 O
  atom 13.132147 5.945765 49.699412 Ti
  atom 9.849084 7.432207 49.699412 Ti
  atom 7.842750 7.432207 49.699441 O
  atom 9.849107 5.945765 50.976178 O
  atom 13.132107 5.945765 51.705880 O
  atom 8.572338 7.432207 52.982617 O
  atom 9.849067 5.945765 52.982647 Ti
  atom 13.132130 7.432207 52.982647 Ti
  atom 11.125796 7.432207 52.982676 O
  atom 13.132152 5.945765 54.259414 O
  atom 9.849026 5.945765 54.989115 O
  atom 6.566126 8.918648 30.000000 Ti
  atom 9.849190 10.405089 30.000000 Ti
  atom 7.842856 10.405089 30.000029 O
  atom 9.849212 8.918648 31.276767 O
  atom 13.132213 8.918648 32.006468 O
  atom 8.572443 10.405089 33.283206 O
  atom 9.849172 8.918648 33.283235 Ti
  atom 13.132235 10.405089 33.283235 Ti
  atom 11.125901 10.405089 33.283265 O
  atom 6.566131 8.918648 34.560002 O
  atom 9.849132 8.918648 35.289704 O
  atom 11.855489 10.405089 36.566441 O
  atom 13.132218 8.918648 36.566471 Ti
  atom 9.849155 10.405089 36.566471 Ti
  atom 7.842820 10.405089 36.566500 O
  atom 9.849177 8.918648 37.843237 O
  atom 13.132178 8.918648 38.572939 O
  atom 8.572408 10.405089 39.849676 O
  atom 9.849137 8.918648 39.849706 Ti
  atom 13.132200 10.405089 39.849706 Ti
  atom 11.125866 10.405089 39.849735 O
  atom 13.132223 8.918648 41.126473 O
  atom 9.849097 8.918648 41.856174 O
  atom 11.855454 10.405089 43.132912 O
  atom 13.132183 8.918648 43.132941 Ti
  atom 9.849119 10.405089 43.132941 Ti
  atom 7.842785 10.405089 43.132970 O
  atom 9.849142 8.918648 44.409708 O
  atom 13.132143 8.918648 45.139409 O
  atom 8.572373 10.405089 46.416147 O
  atom 9.849102 8.918648 46.416176 Ti
  atom 13.132165 10.405089 46.416176 Ti
  atom 11.125831 10.405089 46.416206 O
  atom 13.132188 8.918648 47.692943 O
  atom 9.849062 8.918648 48.422645 O
  atom 11.855418 10.405089 49.699382 O
  atom 13.132147 8.918648 49.699412 Ti
  atom 9.849084 10.405089 49.699412 Ti
  atom 7.842750 10.405089 49.699441 O
  atom 9.849107 8.918648 50.976178 O
  atom 13.132107 8.918648 51.705880 O
  atom 8.572338 10.405089 52.982617 O
  atom 9.849067 8.918648 52.982647 Ti
  atom 13.132130 10.405089 52.982647 Ti
  atom 11.125796 10.405089 52.982676 O
  atom 13.132152 8.918648 54.259414 O
  atom 9.849026 8.918648 54.989115 O
  atom 13.132253 0.000000 30.000000 Ti
  atom 16.415316 1.486441 30.000000 Ti
  atom 14.408982 1.486441 30.000029 O
  atom 16.415339 0.000000 31.276767 O
  atom 19.698339 0.000000 32.006468 O
  atom 15.138570 1.486441 33.283206 O
  atom 16.415299 0.000000 33.283235 Ti
  atom 19.698362 1.486441 33.283235 Ti
  atom 17.692028 1.486441 33.283265 O
  atom 13.132258 0.000000 34.560002 O
  atom 16.415259 0.000000 35.289704 O
  atom 18.421615 1.486441 36.566441 O
  atom 19.698344 0.000000 36.566471 Ti
  atom 16.415281 1.486441 36.566471 Ti
  atom 14.408947 1.486441 36.566500 O
  atom 16.415304 0.000000 37.843237 O
  atom 19.698304 0.000000 38.572939 O
  atom 15.138534 1.486441 39.849676 O
  atom 16.415263 0.000000 39.849706 Ti
  atom 19.698327 1.486441 39.849706 Ti
  atom 17.691993 1.486441 39.849735 O
  atom 19.698349 0.000000 41.126473 O
  atom 16.415223 0.000000 41.856174 O
  atom 18.421580 1.486441 43.132912 O
  atom 19.698309 0.000000 43.132941 Ti
  atom 16.415246 1.486441 43.132941 Ti
  atom 14.408912 1.486441 43.132970 O
  atom 16.415268 0.000000 44.409708 O
  atom 19.698269 0.000000 45.139409 O
  atom 15.138499 1.486441 46.416147 O
  atom 16.415228 0.000000 46.416176 Ti
  atom 19.698292 1.486441 46.416176 Ti
  atom 17.691957 1.486441 46.416206 O
  atom 19.698314 0.000000 47.692943 O
  atom 16.415188 0.000000 48.422645 O
  atom 18.421545 1.486441 49.699382 O
  atom 19.698274 0.000000 49.699412 Ti
  atom 16.415211 1.486441 49.699412 Ti
  atom 14.408876 1.486441 49.699441 O
  atom 16.415233 0.000000 50.976178 O
  atom 19.698234 0.000000 51.705880 O
  atom 15.138464 1.486441 52.982617 O
  atom 16.415193 0.000000 52.982647 Ti
  atom 19.698256 1.486441 52.982647 Ti
  atom 17.691922 1.486441 52.982676 O
  atom 19.698279 0.000000 54.259414 O
  atom 16.415153 0.000000 54.989115 O
  atom 13.132253 2.972883 30.000000 Ti
  atom 16.415316 4.459324 30.000000 Ti
  atom 14.408982 4.459324 30.000029 O
  atom 16.415339 2.972883 31.276767 O
  atom 19.698339 2.972883 32.006468 O
  atom 15.138570 4.459324 33.283206 O
  atom 16.415299 2.972883 33.283235 Ti
  atom 19.698362 4.459324 33.283235 Ti
  atom 17.692028 4.459324 33.283265 O
  atom 13.132258 2.972883 34.560002 O
  atom 16.415259 2.972883 35.289704 O
  atom 18.421615 4.459324 36.566441 O
  atom 19.698344 2.972883 36.566471 Ti
  atom 16.415281 4.459324 36.566471 Ti
  atom 14.408947 4.459324 36.566500 O
  atom 16.415304 2.972883 37.843237 O
  atom 19.698304 2.972883 38.572939 O
  atom 15.138534 4.459324 39.849676 O
  atom 16.415263 2.972883 39.849706 Ti
  atom 19.698327 4.459324 39.849706 Ti
  atom 17.691993 4.459324 39.849735 O
  atom 19.698349 2.972883 41.126473 O
  atom 16.415223 2.972883 41.856174 O
  atom 18.421580 4.459324 43.132912 O
  atom 19.698309 2.972883 43.132941 Ti
  atom 16.415246 4.459324 43.132941 Ti
  atom 14.408912 4.459324 43.132970 O
  atom 16.415268 2.972883 44.409708 O
  atom 19.698269 2.972883 45.139409 O
  atom 15.138499 4.459324 46.416147 O
  atom 16.415228 2.972883 46.416176 Ti
  atom 19.698292 4.459324 46.416176 Ti
  atom 17.691957 4.459324 46.416206 O
  atom 19.698314 2.972883 47.692943 O
  atom 16.415188 2.972883 48.422645 O
  atom 18.421545 4.459324 49.699382 O
  atom 19.698274 2.972883 49.699412 Ti
  atom 16.415211 4.459324 49.699412 Ti
  atom 14.408876 4.459324 49.699441 O
  atom 16.415233 2.972883 50.976178 O
  atom 19.698234 2.972883 51.705880 O
  atom 15.138464 4.459324 52.982617 O
  atom 16.415193 2.972883 52.982647 Ti
  atom 19.698256 4.459324 52.982647 Ti
  atom 17.691922 4.459324 52.982676 O
  atom 19.698279 2.972883 54.259414 O
  atom 16.415153 2.972883 54.989115 O
  atom 13.132253 5.945765 30.000000 Ti
  atom 16.415316 7.432207 30.000000 Ti
  atom 14.408982 7.432207 30.000029 O
  atom 16.415339 5.945765 31.276767 O
  atom 19.698339 5.945765 32.006468 O
  atom 15.138570 7.432207 33.283206 O
  atom 16.415299 5.945765 33.283235 Ti
  atom 19.698362 7.432207 33.283235 Ti
  atom 17.692028 7.432207 33.283265 O
  atom 13.132258 5.945765 34.560002 O
  atom 16.415259 5.945765 35.289704 O
  atom 18.421615 7.432207 36.566441 O
  atom 19.698344 5.945765 36.566471 Ti
  atom 16.415281 7.432207 36.566471 Ti
  atom 14.408947 7.432207 36.566500 O
  atom 16.415304 5.945765 37.843237 O
  atom 19.698304 5.945765 38.572939 O
  atom 15.138534 7.432207 39.849676 O
  atom 16.415263 5.945765 39.849706 Ti
  atom 19.698327 7.432207 39.849706 Ti
  atom 17.691993 7.432207 39.849735 O
  atom 19.698349 5.945765 41.126473 O
  atom 16.415223 5.945765 41.856174 O
  atom 18.421580 7.432207 43.132912 O
  atom 19.698309 5.945765 43.132941 Ti
  atom 16.415246 7.432207 43.132941 Ti
  atom 14.408912 7.432207 43.132970 O
  atom 16.415268 5.945765 44.409708 O
  atom 19.698269 5.945765 45.139409 O
  atom 15.138499 7.432207 46.416147 O
  atom 16.415228 5.945765 46.416176 Ti
  atom 19.698292 7.432207 46.416176 Ti
  atom 17.691957 7.432207 46.416206 O
  atom 19.698314 5.945765 47.692943 O
  atom 16.415188 5.945765 48.422645 O
  atom 18.421545 7.432207 49.699382 O
  atom 19.698274 5.945765 49.699412 Ti
  atom 16.415211 7.432207 49.699412 Ti
  atom 14.408876 7.432207 49.699441 O
  atom 16.415233 5.945765 50.976178 O
  atom 19.698234 5.945765 51.705880 O
  atom 15.138464 7.432207 52.982617 O
  atom 16.415193 5.945765 52.982647 Ti
  atom 19.698256 7.432207 52.982647 Ti
  atom 17.691922 7.432207 52.982676 O
  atom 19.698279 5.945765 54.259414 O
  atom 16.415153 5.945765 54.989115 O
  atom 13.132253 8.918648 30.000000 Ti
  atom 16.415316 10.405089 30.000000 Ti
  atom 14.408982 10.405089 30.000029 O
  atom 16.415339 8.918648 31.276767 O
  atom 19.698339 8.918648 32.006468 O
  atom 15.138570 10.405089 33.283206 O
  atom 16.415299 8.918648 33.283235 Ti
  atom 19.698362 10.405089 33.283235 Ti
  atom 17.692028 10.405089 33.283265 O
  atom 13.132258 8.918648 34.560002 O
  atom 16.415259 8.918648 35.289704 O
  atom 18.421615 10.405089 36.566441 O
  atom 19.698344 8.918648 36.566471 Ti
  atom 16.415281 10.405089 36.566471 Ti
  atom 14.408947 10.405089 36.566500 O
  atom 16.415304 8.918648 37.843237 O
  atom 19.698304 8.918648 38.572939 O
  atom 15.138534 10.405089 39.849676 O
  atom 16.415263 8.918648 39.849706 Ti
  atom 19.698327 10.405089 39.849706 Ti
  atom 17.691993 10.405089 39.849735 O
  atom 19.698349 8.918648 41.126473 O
  atom 16.415223 8.918648 41.856174 O
  atom 18.421580 10.405089 43.132912 O
  atom 19.698309 8.918648 43.132941 Ti
  atom 16.415246 10.405089 43.132941 Ti
  atom 14.408912 10.405089 43.132970 O
  atom 16.415268 8.918648 44.409708 O
  atom 19.698269 8.918648 45.139409 O
  atom 15.138499 10.405089 46.416147 O
  atom 16.415228 8.918648 46.416176 Ti
  atom 19.698292 10.405089 46.416176 Ti
  atom 17.691957 10.405089 46.416206 O
  atom 19.698314 8.918648 47.692943 O
  atom 16.415188 8.918648 48.422645 O
  atom 18.421545 10.405089 49.699382 O
  atom 19.698274 8.918648 49.699412 Ti
  atom 16.415211 10.405089 49.699412 Ti
  atom 14.408876 10.405089 49.699441 O
  atom 16.415233 8.918648 50.976178 O
  atom 19.698234 8.918648 51.705880 O
  atom 15.138464 10.405089 52.982617 O
  atom 16.415193 8.918648 52.982647 Ti
  atom 19.698256 10.405089 52.982647 Ti
  atom 17.691922 10.405089 52.982676 O
  atom 19.698279 8.918648 54.259414 O
  atom 16.415153 8.918648 54.989115 O
  atom 19.698379 0.000000 30.000000 Ti
  atom 22.981443 1.486441 30.000000 Ti
  atom 20.975109 1.486441 30.000029 O
  atom 22.981465 0.000000 31.276767 O
  atom 26.264466 0.000000 32.006468 O
  atom 21.704696 1.486441 33.283206 O
  atom 22.981425 0.000000 33.283235 Ti
  atom 26.264488 1.486441 33.283235 Ti
  atom 24.258154 1.486441 33.283265 O
  atom 19.698384 0.000000 34.560002 O
  atom 22.981385 0.000000 35.289704 O
  atom 24.987742 1.486441 36.566441 O
  atom 26.264471 0.000000 36.566471 Ti
  atom 22.981408 1.486441 36.566471 Ti
  atom 20.975073 1.486441 36.566500 O
  atom 22.981430 0.000000 37.843237 O
  atom 26.264431 0.000000 38.572939 O
  atom 21.704661 1.486441 39.849676 O
  atom 22.981390 0.000000 39.849706 Ti
  atom 26.264453 1.486441 39.849706 Ti
  atom 24.258119 1.486441 39.849735 O
  atom 26.264476 0.000000 41.126473 O
  atom 22.981350 0.000000 41.856174 O
  atom 24.987707 1.486441 43.132912 O
  atom 26.264436 0.000000 43.132941 Ti
  atom 22.981372 1.486441 43.132941 Ti
  atom 20.975038 1.486441 43.132970 O
  atom 22.981395 0.000000 44.409708 O
  atom 26.264396 0.000000 45.139409 O
  atom 21.704626 1.486441 46.416147 O
  atom 22.981355 0.000000 46.416176 Ti
  atom 26.264418 1.486441 46.416176 Ti
  atom 24.258084 1.486441 46.416206 O
  atom 26.264441 0.000000 47.692943 O
  atom 22.981315 0.000000 48.422645 O
  atom 24.987671 1.486441 49.699382 O
  atom 26.264400 0.000000 49.699412 Ti
  atom 22.981337 1.486441 49.699412 Ti
  atom 20.975003 1.486441 49.699441 O
  atom 22.981360 0.000000 50.976178 O
  atom 26.264360 0.000000 51.705880 O
  atom 21.704591 1.486441 52.982617 O
  atom 22.981320 0.000000 52.982647 Ti
  atom 26.264383 1.486441 52.982647 Ti
  atom 24.258049 1.486441 52.982676 O
  atom 26.264405 0.000000 54.259414 O
  atom 22.981279 0.000000 54.989115 O
  atom 19.698379 2.972883 30.000000 Ti
  atom 22.981443 4.459324 30.000000 Ti
  atom 20.975109 4.459324 30.000029 O
  atom 22.981465 2.972883 31.276767 O
  atom 26.264466 2.972883 32.006468 O
  atom 21.704696 4.459324 33.283206 O
  atom 22.981425 2.972883 33.283235 Ti
  atom 26.264488 4.459324 33.283235 Ti
  atom 24.258154 4.459324 33.283265 O
  atom 19.698384 2.972883 34.560002 O
  atom 22.981385 2.972883 35.289704 O
  atom 24.987742 4.459324 36.566441 O
  atom 26.264471 2.972883 36.566471 Ti
  atom 22.981408 4.459324 36.566471 Ti
  atom 20.975073 4.459324 36.566500 O
  atom 22.981430 2.972883 37.843237 O
  atom 26.264431 2.972883 38.572939 O
  atom 21.704661 4.459324 39.849676 O
  atom 22.981390 2.972883 39.849706 Ti
  atom 26.264453 4.459324 39.849706 Ti
  atom 24.258119 4.459324 39.849735 O
  atom 26.264476 2.972883 41.126473 O
  atom 22.981350 2.972883 41.856174 O
  atom 24.987707 4.459324 43.132912 O
  atom 26.264436 2.972883 43.132941 Ti
  atom 22.981372 4.459324 43.132941 Ti
  atom 20.975038 4.459324 43.132970 O
  atom 22.981395 2.972883 44.409708 O
  atom 26.264396 2.972883 45.139409 O
  atom 21.704626 4.459324 46.416147 O
  atom 22.981355 2.972883 46.416176 Ti
  atom 26.264418 4.459324 46.416176 Ti
  atom 24.258084 4.459324 46.416206 O
  atom 26.264441 2.972883 47.692943 O
  atom 22.981315 2.972883 48.422645 O
  atom 24.987671 4.459324 49.699382 O
  atom 26.264400 2.972883 49.699412 Ti
  atom 22.981337 4.459324 49.699412 Ti
  atom 20.975003 4.459324 49.699441 O
  atom 22.981360 2.972883 50.976178 O
  atom 26.264360 2.972883 51.705880 O
  atom 21.704591 4.459324 52.982617 O
  atom 22.981320 2.972883 52.982647 Ti
  atom 26.264383 4.459324 52.982647 Ti
  atom 24.258049 4.459324 52.982676 O
  atom 26.264405 2.972883 54.259414 O
  atom 22.981279 2.972883 54.989115 O
  atom 19.698379 5.945765 30.000000 Ti
  atom 22.981443 7.432207 30.000000 Ti
  atom 20.975109 7.432207 30.000029 O
  atom 22.981465 5.945765 31.276767 O
  atom 26.264466 5.945765 32.006468 O
  atom 21.704696 7.432207 33.283206 O
  atom 22.981425 5.945765 33.283235 Ti
  atom 26.264488 7.432207 33.283235 Ti
  atom 24.258154 7.432207 33.283265 O
  atom 19.698384 5.945765 34.560002 O
  atom 22.981385 5.945765 35.289704 O
  atom 24.987742 7.432207 36.566441 O
  atom 26.264471 5.945765 36.566471 Ti
  atom 22.981408 7.432207 36.566471 Ti
  atom 20.975073 7.432207 36.566500 O
  atom 22.981430 5.945765 37.843237 O
  atom 26.264431 5.945765 38.572939 O
  atom 21.704661 7.432207 39.849676 O
  atom 22.981390 5.945765 39.849706 Ti
  atom 26.264453 7.432207 39.849706 Ti
  atom 24.258119 7.432207 39.849735 O
  atom 26.264476 5.945765 41.126473 O
  atom 22.981350 5.945765 41.856174 O
  atom 24.987707 7.432207 43.132912 O
  atom 26.264436 5.945765 43.132941 Ti
  atom 22.981372 7.432207 43.132941 Ti
  atom 20.975038 7.432207 43.132970 O
  atom 22.981395 5.945765 44.409708 O
  atom 26.264396 5.945765 45.139409 O
  atom 21.704626 7.432207 46.416147 O
  atom 22.981355 5.945765 46.416176 Ti
  atom 26.264418 7.432207 46.416176 Ti
  atom 24.258084 7.432207 46.416206 O
  atom 26.264441 5.945765 47.692943 O
  atom 22.981315 5.945765 48.422645 O
  atom 24.987671 7.432207 49.699382 O
  atom 26.264400 5.945765 49.699412 Ti
  atom 22.981337 7.432207 49.699412 Ti
  atom 20.975003 7.432207 49.699441 O
  atom 22.981360 5.945765 50.976178 O
  atom 26.264360 5.945765 51.705880 O
  atom 21.704591 7.432207 52.982617 O
  atom 22.981320 5.945765 52.982647 Ti
  atom 26.264383 7.432207 52.982647 Ti
  atom 24.258049 7.432207 52.982676 O
  atom 26.264405 5.945765 54.259414 O
  atom 22.981279 5.945765 54.989115 O
  atom 19.698379 8.918648 30.000000 Ti
  atom 22.981443 10.405089 30.000000 Ti
  atom 20.975109 10.405089 30.000029 O
  atom 22.981465 8.918648 31.276767 O
  atom 26.264466 8.918648 32.006468 O
  atom 21.704696 10.405089 33.283206 O
  atom 22.981425 8.918648 33.283235 Ti
  atom 26.264488 10.405089 33.283235 Ti
  atom 24.258154 10.405089 33.283265 O
  atom 19.698384 8.918648 34.560002 O
  atom 22.981385 8.918648 35.289704 O
  atom 24.987742 10.405089 36.566441 O
  atom 26.264471 8.918648 36.566471 Ti
  atom 22.981408 10.405089 36.566471 Ti
  atom 20.975073 10.405089 36.566500 O
  atom 22.981430 8.918648 37.843237 O
  atom 26.264431 8.918648 38.572939 O
  atom 21.704661 10.405089 39.849676 O
  atom 22.981390 8.918648 39.849706 Ti
  atom 26.264453 10.405089 39.849706 Ti
  atom 24.258119 10.405089 39.849735 O
  atom 26.264476 8.918648 41.126473 O
  atom 22.981350 8.918648 41.856174 O
  atom 24.987707 10.405089 43.132912 O
  atom 26.264436 8.918648 43.132941 Ti
  atom 22.981372 10.405089 43.132941 Ti
  atom 20.975038 10.405089 43.132970 O
  atom 22.981395 8.918648 44.409708 O
  atom 26.264396 8.918648 45.139409 O
  atom 21.704626 10.405089 46.416147 O
  atom 22.981355 8.918648 46.416176 Ti
  atom 26.264418 10.405089 46.416176 Ti
  atom 24.258084 10.405089 46.416206 O
  atom 26.264441 8.918648 47.692943 O
  atom 22.981315 8.918648 48.422645 O
  atom 24.987671 10.405089 49.699382 O
  atom 26.264400 8.918648 49.699412 Ti
  atom 22.981337 10.405089 49.699412 Ti
  atom 20.975003 10.405089 49.699441 O
  atom 22.981360 8.918648 50.976178 O
  atom 26.264360 8.918648 51.705880 O
  atom 21.704591 10.405089 52.982617 O
  atom 22.981320 8.918648 52.982647 Ti
  atom 26.264383 10.405089 52.982647 Ti
  atom 24.258049 10.405089 52.982676 O
  atom 26.264405 8.918648 54.259414 O
  atom 22.981279 8.918648 54.989115 O
  
  -----------------------------------------------------------------------
  Completed first pass over input file geometry.in .
  -----------------------------------------------------------------------
  

  Basic array size parameters:
  | Number of species                 :        3
  | Number of atoms                   :      752
  | Number of lattice vectors         :        3
  | Max. basis fn. angular momentum   :        3
  | Max. atomic/ionic basis occupied n:        4
  | Max. number of basis fn. types    :        3
  | Max. radial fns per species/type  :        7
  | Max. logarithmic grid size        :     1383
  | Max. radial integration grid size :       48
  | Max. angular integration grid size:      302
  | Max. angular grid division number :        8
  | Radial grid for Hartree potential :     1383
  | Number of spin channels           :        1

------------------------------------------------------------
          Reading file control.in.
------------------------------------------------------------
  XC: Using PBE gradient-corrected functionals.
  Scalar relativistic treatment of kinetic energy: on-site free-atom approximation to ZORA.
  Found k-point grid:         1         2         1
  Charged system requested: Charge =   0.100000E+01.
  Mulliken charge analysis will be performed and summarised to the main output.
  Full Mulliken charge analysis will be written to file 'Mulliken.out'.
 
  Reading configuration options for species Ti                  .
  | Found nuclear charge :  22.0000
  | Found atomic mass :    47.8670000000000      amu
  | Found l_max for Hartree potential  :   4
  | Found cutoff potl. onset [A], width [A], scale factor :    3.50000    1.50000    1.00000
  | Threshold for basis-dependent cutoff potential is   0.100000E-03
  | Found data for basic radial integration grid :    48 points, outermost radius =    5.000 A
  | Found multiplier for basic radial grid :   1
  | Found angular grid specification: user-specified.
  | Specified grid contains     5 separate shells.
  | Check grid settings after all constraints further below.
  | Found free-atom valence shell :  4 s   2.000
  | Found free-atom valence shell :  3 p   6.000
  | Found free-atom valence shell :  3 d   2.000
  | Found free-ion valence shell :  4 s   1.000
  | Found free-ion valence shell :  3 p   6.000
  | Found free-ion valence shell :  3 d   1.000
  | Found hydrogenic basis function :  4 f   8.000
  | Found hydrogenic basis function :  3 d   2.700
  | Found ionic basis function :  4 p , default cutoff radius.
  | Found ionic basis function :  4 s , default cutoff radius.
 | Encountered keyword species, ending the description of species Ti                  .
  Species Ti                  : Missing cutoff potential type.
  Defaulting to exp(1/x)/(1-x)^2 type cutoff potential.
  Species Ti: No 'logarithmic' tag. Using default grid for free atom:
  | Default logarithmic grid data [bohr] : 0.1000E-03 0.1000E+03 0.1012E+01
  | Will include ionic basis functions of  2.0-fold positive Ti                   ion.
  Species Ti: On-site basis accuracy parameter (for Gram-Schmidt orthonormalisation) not specified.
  Using default value basis_acc =  0.1000000E-03.
  Species Ti                  : Using default innermost maximum threshold i_radial=  2 for radial functions.
  Species Ti                  : Default cutoff onset for free atom density etc. : 0.35000000E+01 AA.
  Species Ti                  : Basic radial grid will be enhanced according to radial_multiplier =   1, to contain    48 grid points.
 
  Reading configuration options for species O                   .
  | Found nuclear charge :   8.0000
  | Found atomic mass :    15.9994000000000      amu
  | Found l_max for Hartree potential  :   4
  | Found cutoff potl. onset [A], width [A], scale factor :    3.50000    1.50000    1.00000
  | Threshold for basis-dependent cutoff potential is   0.100000E-03
  | Found data for basic radial integration grid :    36 points, outermost radius =    5.000 A
  | Found multiplier for basic radial grid :   1
  | Found angular grid specification: user-specified.
  | Specified grid contains     5 separate shells.
  | Check grid settings after all constraints further below.
  | Found free-atom valence shell :  2 s   2.000
  | Found free-atom valence shell :  2 p   4.000
  | Found free-ion valence shell :  2 s   1.000
  | Found free-ion valence shell :  2 p   3.000
  | Found hydrogenic basis function :  2 p   1.800
  | Found hydrogenic basis function :  3 d   7.600
  | Found hydrogenic basis function :  3 s   6.400
 | Encountered keyword species, ending the description of species O                   .
  Species O                   : Missing cutoff potential type.
  Defaulting to exp(1/x)/(1-x)^2 type cutoff potential.
  Species O : No 'logarithmic' tag. Using default grid for free atom:
  | Default logarithmic grid data [bohr] : 0.1000E-03 0.1000E+03 0.1012E+01
  Species O : On-site basis accuracy parameter (for Gram-Schmidt orthonormalisation) not specified.
  Using default value basis_acc =  0.1000000E-03.
  Species O                   : Using default innermost maximum threshold i_radial=  2 for radial functions.
  Species O                   : Default cutoff onset for free atom density etc. : 0.35000000E+01 AA.
  Species O                   : Basic radial grid will be enhanced according to radial_multiplier =   1, to contain    36 grid points.
 
  Reading configuration options for species F                   .
  | Found nuclear charge :   9.0000
  | Found atomic mass :    18.9984032000000      amu
  | Found l_max for Hartree potential  :   4
  | Found cutoff potl. onset [A], width [A], scale factor :    3.50000    1.50000    1.00000
  | Threshold for basis-dependent cutoff potential is   0.100000E-03
  | Found data for basic radial integration grid :    37 points, outermost radius =    5.000 A
  | Found multiplier for basic radial grid :   1
  | Found angular grid specification: user-specified.
  | Specified grid contains     4 separate shells.
  | Check grid settings after all constraints further below.
  | Found free-atom valence shell :  2 s   2.000
  | Found free-atom valence shell :  2 p   5.000
  | Found free-ion valence shell :  2 s   1.000
  | Found free-ion valence shell :  2 p   4.000
  | Found hydrogenic basis function :  2 p   1.700
  | Found hydrogenic basis function :  3 d   7.400
  | Found hydrogenic basis function :  3 s   6.800
  Species F                   : Missing cutoff potential type.
  Defaulting to exp(1/x)/(1-x)^2 type cutoff potential.
  Species F : No 'logarithmic' tag. Using default grid for free atom:
  | Default logarithmic grid data [bohr] : 0.1000E-03 0.1000E+03 0.1012E+01
  Species F : On-site basis accuracy parameter (for Gram-Schmidt orthonormalisation) not specified.
  Using default value basis_acc =  0.1000000E-03.
  Species F                   : Using default innermost maximum threshold i_radial=  2 for radial functions.
  Species F                   : Default cutoff onset for free atom density etc. : 0.35000000E+01 AA.
  Species F                   : Basic radial grid will be enhanced according to radial_multiplier =   1, to contain    37 grid points.
 
  Finished reading input file 'control.in'.
 
------------------------------------------------------------


------------------------------------------------------------
          Reading geometry description geometry.in.
------------------------------------------------------------
  | The smallest distance between any two atoms is         1.95947539 AA.
  | The first atom of this pair is atom number                    554 .
  | The second atom of this pair is atom number                   697 .
  | Wigner-Seitz cell of the first atom image           0     0     0 .
  | (The Wigner-Seitz cell of the second atom is 0 0 0  by definition.)

  Symmetry information by spglib:
  | Precision set to  0.1E-04
  | Number of Operations  : 2
  | Space group           : 6
  | International         : Pm
  | Schoenflies           : Cs^1
  Input structure read successfully.
  The structure contains      752 atoms,  and a total of       9600.000 electrons.

  Input geometry:
  | Unit cell:
  |       26.26450600        0.00000000        0.00000000
  |        0.00000000       11.89153100        0.00000000
  |        0.00000000        0.00000000       84.98911500
  | Atomic structure:
  |       Atom                x [A]            y [A]            z [A]
  |    1: Species Ti           26.26450600        0.00000000       30.00000000
  |    2: Species Ti            3.28306300        1.48644100       30.00000000
  |    3: Species F             1.27672900        1.48644100       30.00002900
  |    4: Species O             3.28308600        0.00000000       31.27676700
  |    5: Species O             6.56608600        0.00000000       32.00646800
  |    6: Species O             2.00631700        1.48644100       33.28320600
  |    7: Species Ti            3.28304600        0.00000000       33.28323500
  |    8: Species Ti            6.56610900        1.48644100       33.28323500
  |    9: Species O             4.55977500        1.48644100       33.28326500
  |   10: Species O             0.00000500        0.00000000       34.56000200
  |   11: Species O             3.28300600        0.00000000       35.28970400
  |   12: Species O             5.28936200        1.48644100       36.56644100
  |   13: Species Ti            6.56609100        0.00000000       36.56647100
  |   14: Species Ti            3.28302800        1.48644100       36.56647100
  |   15: Species O             1.27669400        1.48644100       36.56650000
  |   16: Species O             3.28305100        0.00000000       37.84323700
  |   17: Species O             6.56605100        0.00000000       38.57293900
  |   18: Species O             2.00628100        1.48644100       39.84967600
  |   19: Species Ti            3.28301000        0.00000000       39.84970600
  |   20: Species Ti            6.56607400        1.48644100       39.84970600
  |   21: Species O             4.55974000        1.48644100       39.84973500
  |   22: Species O             6.56609600        0.00000000       41.12647300
  |   23: Species O             3.28297000        0.00000000       41.85617400
  |   24: Species O             5.28932700        1.48644100       43.13291200
  |   25: Species Ti            6.56605600        0.00000000       43.13294100
  |   26: Species Ti            3.28299300        1.48644100       43.13294100
  |   27: Species O             1.27665900        1.48644100       43.13297000
  |   28: Species O             3.28301500        0.00000000       44.40970800
  |   29: Species O             6.56601600        0.00000000       45.13940900
  |   30: Species O             2.00624600        1.48644100       46.41614700
  |   31: Species Ti            3.28297500        0.00000000       46.41617600
  |   32: Species Ti            6.56603900        1.48644100       46.41617600
  |   33: Species O             4.55970400        1.48644100       46.41620600
  |   34: Species O             6.56606100        0.00000000       47.69294300
  |   35: Species O             3.28293500        0.00000000       48.42264500
  |   36: Species O             5.28929200        1.48644100       49.69938200
  |   37: Species Ti            6.56602100        0.00000000       49.69941200
  |   38: Species Ti            3.28295800        1.48644100       49.69941200
  |   39: Species O             1.27662300        1.48644100       49.69944100
  |   40: Species O             3.28298000        0.00000000       50.97617800
  |   41: Species O             6.56598100        0.00000000       51.70588000
  |   42: Species O             2.00621100        1.48644100       52.98261700
  |   43: Species Ti            3.28294000        0.00000000       52.98264700
  |   44: Species Ti            6.56600300        1.48644100       52.98264700
  |   45: Species O             4.55966900        1.48644100       52.98267600
  |   46: Species O             6.56602600        0.00000000       54.25941400
  |   47: Species O             3.28290000        0.00000000       54.98911500
  |   48: Species Ti           26.26450600        2.97288300       30.00000000
  |   49: Species Ti            3.28306300        4.45932400       30.00000000
  |   50: Species O             1.27672900        4.45932400       30.00002900
  |   51: Species O             3.28308600        2.97288300       31.27676700
  |   52: Species O             6.56608600        2.97288300       32.00646800
  |   53: Species O             2.00631700        4.45932400       33.28320600
  |   54: Species Ti            3.28304600        2.97288300       33.28323500
  |   55: Species Ti            6.56610900        4.45932400       33.28323500
  |   56: Species O             4.55977500        4.45932400       33.28326500
  |   57: Species O             0.00000500        2.97288300       34.56000200
  |   58: Species O             3.28300600        2.97288300       35.28970400
  |   59: Species O             5.28936200        4.45932400       36.56644100
  |   60: Species Ti            6.56609100        2.97288300       36.56647100
  |   61: Species Ti            3.28302800        4.45932400       36.56647100
  |   62: Species O             1.27669400        4.45932400       36.56650000
  |   63: Species O             3.28305100        2.97288300       37.84323700
  |   64: Species O             6.56605100        2.97288300       38.57293900
  |   65: Species O             2.00628100        4.45932400       39.84967600
  |   66: Species Ti            3.28301000        2.97288300       39.84970600
  |   67: Species Ti            6.56607400        4.45932400       39.84970600
  |   68: Species O             4.55974000        4.45932400       39.84973500
  |   69: Species O             6.56609600        2.97288300       41.12647300
  |   70: Species O             3.28297000        2.97288300       41.85617400
  |   71: Species O             5.28932700        4.45932400       43.13291200
  |   72: Species Ti            6.56605600        2.97288300       43.13294100
  |   73: Species Ti            3.28299300        4.45932400       43.13294100
  |   74: Species O             1.27665900        4.45932400       43.13297000
  |   75: Species O             3.28301500        2.97288300       44.40970800
  |   76: Species O             6.56601600        2.97288300       45.13940900
  |   77: Species O             2.00624600        4.45932400       46.41614700
  |   78: Species Ti            3.28297500        2.97288300       46.41617600
  |   79: Species Ti            6.56603900        4.45932400       46.41617600
  |   80: Species O             4.55970400        4.45932400       46.41620600
  |   81: Species O             6.56606100        2.97288300       47.69294300
  |   82: Species O             3.28293500        2.97288300       48.42264500
  |   83: Species O             5.28929200        4.45932400       49.69938200
  |   84: Species Ti            6.56602100        2.97288300       49.69941200
  |   85: Species Ti            3.28295800        4.45932400       49.69941200
  |   86: Species O             1.27662300        4.45932400       49.69944100
  |   87: Species O             3.28298000        2.97288300       50.97617800
  |   88: Species O             6.56598100        2.97288300       51.70588000
  |   89: Species O             2.00621100        4.45932400       52.98261700
  |   90: Species Ti            3.28294000        2.97288300       52.98264700
  |   91: Species Ti            6.56600300        4.45932400       52.98264700
  |   92: Species O             4.55966900        4.45932400       52.98267600
  |   93: Species O             6.56602600        2.97288300       54.25941400
  |   94: Species O             3.28290000        2.97288300       54.98911500
  |   95: Species Ti           26.26450600        5.94576500       30.00000000
  |   96: Species Ti            3.28306300        7.43220700       30.00000000
  |   97: Species O             1.27672900        7.43220700       30.00002900
  |   98: Species O             3.28308600        5.94576500       31.27676700
  |   99: Species O             6.56608600        5.94576500       32.00646800
  |  100: Species O             2.00631700        7.43220700       33.28320600
  |  101: Species Ti            3.28304600        5.94576500       33.28323500
  |  102: Species Ti            6.56610900        7.43220700       33.28323500
  |  103: Species O             4.55977500        7.43220700       33.28326500
  |  104: Species O             0.00000500        5.94576500       34.56000200
  |  105: Species O             3.28300600        5.94576500       35.28970400
  |  106: Species O             5.28936200        7.43220700       36.56644100
  |  107: Species Ti            6.56609100        5.94576500       36.56647100
  |  108: Species Ti            3.28302800        7.43220700       36.56647100
  |  109: Species O             1.27669400        7.43220700       36.56650000
  |  110: Species O             3.28305100        5.94576500       37.84323700
  |  111: Species O             6.56605100        5.94576500       38.57293900
  |  112: Species O             2.00628100        7.43220700       39.84967600
  |  113: Species Ti            3.28301000        5.94576500       39.84970600
  |  114: Species Ti            6.56607400        7.43220700       39.84970600
  |  115: Species O             4.55974000        7.43220700       39.84973500
  |  116: Species O             6.56609600        5.94576500       41.12647300
  |  117: Species O             3.28297000        5.94576500       41.85617400
  |  118: Species O             5.28932700        7.43220700       43.13291200
  |  119: Species Ti            6.56605600        5.94576500       43.13294100
  |  120: Species Ti            3.28299300        7.43220700       43.13294100
  |  121: Species O             1.27665900        7.43220700       43.13297000
  |  122: Species O             3.28301500        5.94576500       44.40970800
  |  123: Species O             6.56601600        5.94576500       45.13940900
  |  124: Species O             2.00624600        7.43220700       46.41614700
  |  125: Species Ti            3.28297500        5.94576500       46.41617600
  |  126: Species Ti            6.56603900        7.43220700       46.41617600
  |  127: Species O             4.55970400        7.43220700       46.41620600
  |  128: Species O             6.56606100        5.94576500       47.69294300
  |  129: Species O             3.28293500        5.94576500       48.42264500
  |  130: Species O             5.28929200        7.43220700       49.69938200
  |  131: Species Ti            6.56602100        5.94576500       49.69941200
  |  132: Species Ti            3.28295800        7.43220700       49.69941200
  |  133: Species O             1.27662300        7.43220700       49.69944100
  |  134: Species O             3.28298000        5.94576500       50.97617800
  |  135: Species O             6.56598100        5.94576500       51.70588000
  |  136: Species O             2.00621100        7.43220700       52.98261700
  |  137: Species Ti            3.28294000        5.94576500       52.98264700
  |  138: Species Ti            6.56600300        7.43220700       52.98264700
  |  139: Species O             4.55966900        7.43220700       52.98267600
  |  140: Species O             6.56602600        5.94576500       54.25941400
  |  141: Species O             3.28290000        5.94576500       54.98911500
  |  142: Species Ti           26.26450600        8.91864800       30.00000000
  |  143: Species Ti            3.28306300       10.40508900       30.00000000
  |  144: Species O             1.27672900       10.40508900       30.00002900
  |  145: Species O             3.28308600        8.91864800       31.27676700
  |  146: Species O             6.56608600        8.91864800       32.00646800
  |  147: Species O             2.00631700       10.40508900       33.28320600
  |  148: Species Ti            3.28304600        8.91864800       33.28323500
  |  149: Species Ti            6.56610900       10.40508900       33.28323500
  |  150: Species O             4.55977500       10.40508900       33.28326500
  |  151: Species O             0.00000500        8.91864800       34.56000200
  |  152: Species O             3.28300600        8.91864800       35.28970400
  |  153: Species O             5.28936200       10.40508900       36.56644100
  |  154: Species Ti            6.56609100        8.91864800       36.56647100
  |  155: Species Ti            3.28302800       10.40508900       36.56647100
  |  156: Species O             1.27669400       10.40508900       36.56650000
  |  157: Species O             3.28305100        8.91864800       37.84323700
  |  158: Species O             6.56605100        8.91864800       38.57293900
  |  159: Species O             2.00628100       10.40508900       39.84967600
  |  160: Species Ti            3.28301000        8.91864800       39.84970600
  |  161: Species Ti            6.56607400       10.40508900       39.84970600
  |  162: Species O             4.55974000       10.40508900       39.84973500
  |  163: Species O             6.56609600        8.91864800       41.12647300
  |  164: Species O             3.28297000        8.91864800       41.85617400
  |  165: Species O             5.28932700       10.40508900       43.13291200
  |  166: Species Ti            6.56605600        8.91864800       43.13294100
  |  167: Species Ti            3.28299300       10.40508900       43.13294100
  |  168: Species O             1.27665900       10.40508900       43.13297000
  |  169: Species O             3.28301500        8.91864800       44.40970800
  |  170: Species O             6.56601600        8.91864800       45.13940900
  |  171: Species O             2.00624600       10.40508900       46.41614700
  |  172: Species Ti            3.28297500        8.91864800       46.41617600
  |  173: Species Ti            6.56603900       10.40508900       46.41617600
  |  174: Species O             4.55970400       10.40508900       46.41620600
  |  175: Species O             6.56606100        8.91864800       47.69294300
  |  176: Species O             3.28293500        8.91864800       48.42264500
  |  177: Species O             5.28929200       10.40508900       49.69938200
  |  178: Species Ti            6.56602100        8.91864800       49.69941200
  |  179: Species Ti            3.28295800       10.40508900       49.69941200
  |  180: Species O             1.27662300       10.40508900       49.69944100
  |  181: Species O             3.28298000        8.91864800       50.97617800
  |  182: Species O             6.56598100        8.91864800       51.70588000
  |  183: Species O             2.00621100       10.40508900       52.98261700
  |  184: Species Ti            3.28294000        8.91864800       52.98264700
  |  185: Species Ti            6.56600300       10.40508900       52.98264700
  |  186: Species O             4.55966900       10.40508900       52.98267600
  |  187: Species O             6.56602600        8.91864800       54.25941400
  |  188: Species O             3.28290000        8.91864800       54.98911500
  |  189: Species Ti            6.56612600        0.00000000       30.00000000
  |  190: Species Ti            9.84919000        1.48644100       30.00000000
  |  191: Species O             7.84285600        1.48644100       30.00002900
  |  192: Species O             9.84921200        0.00000000       31.27676700
  |  193: Species O            13.13221300        0.00000000       32.00646800
  |  194: Species O             8.57244300        1.48644100       33.28320600
  |  195: Species Ti            9.84917200        0.00000000       33.28323500
  |  196: Species Ti           13.13223500        1.48644100       33.28323500
  |  197: Species O            11.12590100        1.48644100       33.28326500
  |  198: Species O             6.56613100        0.00000000       34.56000200
  |  199: Species O             9.84913200        0.00000000       35.28970400
  |  200: Species O            11.85548900        1.48644100       36.56644100
  |  201: Species Ti           13.13221800        0.00000000       36.56647100
  |  202: Species Ti            9.84915500        1.48644100       36.56647100
  |  203: Species O             7.84282000        1.48644100       36.56650000
  |  204: Species O             9.84917700        0.00000000       37.84323700
  |  205: Species O            13.13217800        0.00000000       38.57293900
  |  206: Species O             8.57240800        1.48644100       39.84967600
  |  207: Species Ti            9.84913700        0.00000000       39.84970600
  |  208: Species Ti           13.13220000        1.48644100       39.84970600
  |  209: Species O            11.12586600        1.48644100       39.84973500
  |  210: Species O            13.13222300        0.00000000       41.12647300
  |  211: Species O             9.84909700        0.00000000       41.85617400
  |  212: Species O            11.85545400        1.48644100       43.13291200
  |  213: Species Ti           13.13218300        0.00000000       43.13294100
  |  214: Species Ti            9.84911900        1.48644100       43.13294100
  |  215: Species O             7.84278500        1.48644100       43.13297000
  |  216: Species O             9.84914200        0.00000000       44.40970800
  |  217: Species O            13.13214300        0.00000000       45.13940900
  |  218: Species O             8.57237300        1.48644100       46.41614700
  |  219: Species Ti            9.84910200        0.00000000       46.41617600
  |  220: Species Ti           13.13216500        1.48644100       46.41617600
  |  221: Species O            11.12583100        1.48644100       46.41620600
  |  222: Species O            13.13218800        0.00000000       47.69294300
  |  223: Species O             9.84906200        0.00000000       48.42264500
  |  224: Species O            11.85541800        1.48644100       49.69938200
  |  225: Species Ti           13.13214700        0.00000000       49.69941200
  |  226: Species Ti            9.84908400        1.48644100       49.69941200
  |  227: Species O             7.84275000        1.48644100       49.69944100
  |  228: Species O             9.84910700        0.00000000       50.97617800
  |  229: Species O            13.13210700        0.00000000       51.70588000
  |  230: Species O             8.57233800        1.48644100       52.98261700
  |  231: Species Ti            9.84906700        0.00000000       52.98264700
  |  232: Species Ti           13.13213000        1.48644100       52.98264700
  |  233: Species O            11.12579600        1.48644100       52.98267600
  |  234: Species O            13.13215200        0.00000000       54.25941400
  |  235: Species O             9.84902600        0.00000000       54.98911500
  |  236: Species Ti            6.56612600        2.97288300       30.00000000
  |  237: Species Ti            9.84919000        4.45932400       30.00000000
  |  238: Species O             7.84285600        4.45932400       30.00002900
  |  239: Species O             9.84921200        2.97288300       31.27676700
  |  240: Species O            13.13221300        2.97288300       32.00646800
  |  241: Species O             8.57244300        4.45932400       33.28320600
  |  242: Species Ti            9.84917200        2.97288300       33.28323500
  |  243: Species Ti           13.13223500        4.45932400       33.28323500
  |  244: Species O            11.12590100        4.45932400       33.28326500
  |  245: Species O             6.56613100        2.97288300       34.56000200
  |  246: Species O             9.84913200        2.97288300       35.28970400
  |  247: Species O            11.85548900        4.45932400       36.56644100
  |  248: Species Ti           13.13221800        2.97288300       36.56647100
  |  249: Species Ti            9.84915500        4.45932400       36.56647100
  |  250: Species O             7.84282000        4.45932400       36.56650000
  |  251: Species O             9.84917700        2.97288300       37.84323700
  |  252: Species O            13.13217800        2.97288300       38.57293900
  |  253: Species O             8.57240800        4.45932400       39.84967600
  |  254: Species Ti            9.84913700        2.97288300       39.84970600
  |  255: Species Ti           13.13220000        4.45932400       39.84970600
  |  256: Species O            11.12586600        4.45932400       39.84973500
  |  257: Species O            13.13222300        2.97288300       41.12647300
  |  258: Species O             9.84909700        2.97288300       41.85617400
  |  259: Species O            11.85545400        4.45932400       43.13291200
  |  260: Species Ti           13.13218300        2.97288300       43.13294100
  |  261: Species Ti            9.84911900        4.45932400       43.13294100
  |  262: Species O             7.84278500        4.45932400       43.13297000
  |  263: Species O             9.84914200        2.97288300       44.40970800
  |  264: Species O            13.13214300        2.97288300       45.13940900
  |  265: Species O             8.57237300        4.45932400       46.41614700
  |  266: Species Ti            9.84910200        2.97288300       46.41617600
  |  267: Species Ti           13.13216500        4.45932400       46.41617600
  |  268: Species O            11.12583100        4.45932400       46.41620600
  |  269: Species O            13.13218800        2.97288300       47.69294300
  |  270: Species O             9.84906200        2.97288300       48.42264500
  |  271: Species O            11.85541800        4.45932400       49.69938200
  |  272: Species Ti           13.13214700        2.97288300       49.69941200
  |  273: Species Ti            9.84908400        4.45932400       49.69941200
  |  274: Species O             7.84275000        4.45932400       49.69944100
  |  275: Species O             9.84910700        2.97288300       50.97617800
  |  276: Species O            13.13210700        2.97288300       51.70588000
  |  277: Species O             8.57233800        4.45932400       52.98261700
  |  278: Species Ti            9.84906700        2.97288300       52.98264700
  |  279: Species Ti           13.13213000        4.45932400       52.98264700
  |  280: Species O            11.12579600        4.45932400       52.98267600
  |  281: Species O            13.13215200        2.97288300       54.25941400
  |  282: Species O             9.84902600        2.97288300       54.98911500
  |  283: Species Ti            6.56612600        5.94576500       30.00000000
  |  284: Species Ti            9.84919000        7.43220700       30.00000000
  |  285: Species O             7.84285600        7.43220700       30.00002900
  |  286: Species O             9.84921200        5.94576500       31.27676700
  |  287: Species O            13.13221300        5.94576500       32.00646800
  |  288: Species O             8.57244300        7.43220700       33.28320600
  |  289: Species Ti            9.84917200        5.94576500       33.28323500
  |  290: Species Ti           13.13223500        7.43220700       33.28323500
  |  291: Species O            11.12590100        7.43220700       33.28326500
  |  292: Species O             6.56613100        5.94576500       34.56000200
  |  293: Species O             9.84913200        5.94576500       35.28970400
  |  294: Species O            11.85548900        7.43220700       36.56644100
  |  295: Species Ti           13.13221800        5.94576500       36.56647100
  |  296: Species Ti            9.84915500        7.43220700       36.56647100
  |  297: Species O             7.84282000        7.43220700       36.56650000
  |  298: Species O             9.84917700        5.94576500       37.84323700
  |  299: Species O            13.13217800        5.94576500       38.57293900
  |  300: Species O             8.57240800        7.43220700       39.84967600
  |  301: Species Ti            9.84913700        5.94576500       39.84970600
  |  302: Species Ti           13.13220000        7.43220700       39.84970600
  |  303: Species O            11.12586600        7.43220700       39.84973500
  |  304: Species O            13.13222300        5.94576500       41.12647300
  |  305: Species O             9.84909700        5.94576500       41.85617400
  |  306: Species O            11.85545400        7.43220700       43.13291200
  |  307: Species Ti           13.13218300        5.94576500       43.13294100
  |  308: Species Ti            9.84911900        7.43220700       43.13294100
  |  309: Species O             7.84278500        7.43220700       43.13297000
  |  310: Species O             9.84914200        5.94576500       44.40970800
  |  311: Species O            13.13214300        5.94576500       45.13940900
  |  312: Species O             8.57237300        7.43220700       46.41614700
  |  313: Species Ti            9.84910200        5.94576500       46.41617600
  |  314: Species Ti           13.13216500        7.43220700       46.41617600
  |  315: Species O            11.12583100        7.43220700       46.41620600
  |  316: Species O            13.13218800        5.94576500       47.69294300
  |  317: Species O             9.84906200        5.94576500       48.42264500
  |  318: Species O            11.85541800        7.43220700       49.69938200
  |  319: Species Ti           13.13214700        5.94576500       49.69941200
  |  320: Species Ti            9.84908400        7.43220700       49.69941200
  |  321: Species O             7.84275000        7.43220700       49.69944100
  |  322: Species O             9.84910700        5.94576500       50.97617800
  |  323: Species O            13.13210700        5.94576500       51.70588000
  |  324: Species O             8.57233800        7.43220700       52.98261700
  |  325: Species Ti            9.84906700        5.94576500       52.98264700
  |  326: Species Ti           13.13213000        7.43220700       52.98264700
  |  327: Species O            11.12579600        7.43220700       52.98267600
  |  328: Species O            13.13215200        5.94576500       54.25941400
  |  329: Species O             9.84902600        5.94576500       54.98911500
  |  330: Species Ti            6.56612600        8.91864800       30.00000000
  |  331: Species Ti            9.84919000       10.40508900       30.00000000
  |  332: Species O             7.84285600       10.40508900       30.00002900
  |  333: Species O             9.84921200        8.91864800       31.27676700
  |  334: Species O            13.13221300        8.91864800       32.00646800
  |  335: Species O             8.57244300       10.40508900       33.28320600
  |  336: Species Ti            9.84917200        8.91864800       33.28323500
  |  337: Species Ti           13.13223500       10.40508900       33.28323500
  |  338: Species O            11.12590100       10.40508900       33.28326500
  |  339: Species O             6.56613100        8.91864800       34.56000200
  |  340: Species O             9.84913200        8.91864800       35.28970400
  |  341: Species O            11.85548900       10.40508900       36.56644100
  |  342: Species Ti           13.13221800        8.91864800       36.56647100
  |  343: Species Ti            9.84915500       10.40508900       36.56647100
  |  344: Species O             7.84282000       10.40508900       36.56650000
  |  345: Species O             9.84917700        8.91864800       37.84323700
  |  346: Species O            13.13217800        8.91864800       38.57293900
  |  347: Species O             8.57240800       10.40508900       39.84967600
  |  348: Species Ti            9.84913700        8.91864800       39.84970600
  |  349: Species Ti           13.13220000       10.40508900       39.84970600
  |  350: Species O            11.12586600       10.40508900       39.84973500
  |  351: Species O            13.13222300        8.91864800       41.12647300
  |  352: Species O             9.84909700        8.91864800       41.85617400
  |  353: Species O            11.85545400       10.40508900       43.13291200
  |  354: Species Ti           13.13218300        8.91864800       43.13294100
  |  355: Species Ti            9.84911900       10.40508900       43.13294100
  |  356: Species O             7.84278500       10.40508900       43.13297000
  |  357: Species O             9.84914200        8.91864800       44.40970800
  |  358: Species O            13.13214300        8.91864800       45.13940900
  |  359: Species O             8.57237300       10.40508900       46.41614700
  |  360: Species Ti            9.84910200        8.91864800       46.41617600
  |  361: Species Ti           13.13216500       10.40508900       46.41617600
  |  362: Species O            11.12583100       10.40508900       46.41620600
[...]
  |   619       20.758108        1.241892        5.969191       12.497519        2.147638        0.143761
  |   620        8.627450       -0.627450        3.845992        4.771499        0.009960
  |   621        8.611950       -0.611950        3.848079        4.753742        0.010128
  |   622        8.624576       -0.624576        3.846826        4.767861        0.009888
  |   623        8.623728       -0.623728        3.847756        4.766084        0.009888
  |   624       20.750442        1.249558        5.962320       12.507716        2.135619        0.144788
  |   625       20.750666        1.249334        5.962522       12.507477        2.135880        0.144787
  |   626        8.623828       -0.623828        3.847779        4.766162        0.009886
  |   627        8.619715       -0.619715        3.848474        4.761254        0.009987
  |   628        8.626155       -0.626155        3.847246        4.769081        0.009828
  |   629        8.624057       -0.624057        3.847764        4.766415        0.009878
  |   630       20.751738        1.248262        5.963069       12.508305        2.135514        0.144850
  |   631       20.751558        1.248442        5.963019       12.508419        2.135238        0.144882
  |   632        8.624080       -0.624080        3.847761        4.766442        0.009877
  |   633        8.619681       -0.619681        3.848530        4.761178        0.009973
  |   634        8.626489       -0.626489        3.847299        4.769369        0.009822
  |   635        8.624074       -0.624074        3.847767        4.766428        0.009878
  |   636       20.751778        1.248222        5.963109       12.508320        2.135498        0.144851
  |   637       20.751502        1.248498        5.963043       12.508503        2.135057        0.144900
  |   638        8.624083       -0.624083        3.847765        4.766440        0.009878
  |   639        8.619841       -0.619841        3.848479        4.761397        0.009964
  |   640        8.626460       -0.626460        3.847274        4.769350        0.009836
  |   641        8.623878       -0.623878        3.847783        4.766215        0.009880
  |   642       20.751009        1.248991        5.962818       12.508181        2.135147        0.144863
  |   643       20.751227        1.248773        5.962765       12.508042        2.135558        0.144863
  |   644        8.623884       -0.623884        3.847782        4.766222        0.009880
  |   645        8.619692       -0.619692        3.848495        4.761194        0.010003
  |   646        8.624035       -0.624035        3.847084        4.767091        0.009860
  |   647        8.622280       -0.622280        3.847689        4.764733        0.009858
  |   648       20.747703        1.252297        5.962265       12.505754        2.135126        0.144559
  |   649       20.744094        1.255906        5.961347       12.504126        2.133715        0.144905
  |   650        8.622280       -0.622280        3.847689        4.764733        0.009858
  |   651        8.609180       -0.609180        3.848009        4.751011        0.010160
  |   652        8.609188       -0.609188        3.845721        4.753025        0.010441
  |   653        8.580872       -0.580872        3.857554        4.713110        0.010208
  |   654       20.851322        1.148678        6.028779       12.509376        2.169647        0.143519
  |   655       20.930221        1.069779        6.048767       12.526780        2.209643        0.145031
  |   656        8.580869       -0.580869        3.857554        4.713107        0.010208
  |   657        8.346526       -0.346526        3.896208        4.438704        0.011614
  |   658        8.131962       -0.131962        3.951907        4.173354        0.006701
  |   659       21.318771        0.681229        6.426197       12.425831        2.405384        0.061360
  |   660       21.374938        0.625062        6.473072       12.436485        2.404043        0.061338
  |   661        8.646748       -0.646748        3.855394        4.776641        0.014713
  |   662        8.602630       -0.602630        3.847871        4.742240        0.012519
  |   663        8.636196       -0.636196        3.847397        4.779271        0.009528
  |   664        8.625879       -0.625879        3.847529        4.768437        0.009913
  |   665       20.752453        1.247547        5.962209       12.497804        2.148954        0.143486
  |   666       20.758484        1.241516        5.969310       12.498636        2.146584        0.143954
  |   667        8.627165       -0.627165        3.845970        4.771228        0.009966
  |   668        8.611947       -0.611947        3.848080        4.753739        0.010128
  |   669        8.624569       -0.624569        3.846833        4.767844        0.009893
  |   670        8.623718       -0.623718        3.847758        4.766072        0.009888
  |   671       20.750421        1.249579        5.962301       12.507718        2.135608        0.144794
  |   672       20.750708        1.249292        5.962533       12.507456        2.135935        0.144783
  |   673        8.623830       -0.623830        3.847780        4.766164        0.009886
  |   674        8.619723       -0.619723        3.848470        4.761265        0.009988
  |   675        8.626158       -0.626158        3.847243        4.769088        0.009826
  |   676        8.624057       -0.624057        3.847764        4.766414        0.009878
  |   677       20.751732        1.248268        5.963070       12.508306        2.135506        0.144850
  |   678       20.751548        1.248452        5.963019       12.508422        2.135224        0.144883
  |   679        8.624080       -0.624080        3.847761        4.766442        0.009877
  |   680        8.619681       -0.619681        3.848530        4.761178        0.009973
  |   681        8.626492       -0.626492        3.847299        4.769371        0.009822
  |   682        8.624074       -0.624074        3.847767        4.766428        0.009878
  |   683       20.751778        1.248222        5.963108       12.508320        2.135498        0.144851
  |   684       20.751502        1.248498        5.963043       12.508502        2.135057        0.144899
  |   685        8.624083       -0.624083        3.847765        4.766439        0.009878
  |   686        8.619841       -0.619841        3.848479        4.761398        0.009964
  |   687        8.626460       -0.626460        3.847274        4.769350        0.009836
  |   688        8.623878       -0.623878        3.847783        4.766215        0.009880
  |   689       20.751009        1.248991        5.962818       12.508181        2.135147        0.144863
  |   690       20.751227        1.248773        5.962765       12.508042        2.135558        0.144863
  |   691        8.623884       -0.623884        3.847782        4.766223        0.009880
  |   692        8.619692       -0.619692        3.848495        4.761194        0.010003
  |   693        8.624035       -0.624035        3.847084        4.767091        0.009860
  |   694        8.622280       -0.622280        3.847689        4.764733        0.009858
  |   695       20.747703        1.252297        5.962265       12.505754        2.135126        0.144559
  |   696       20.744094        1.255906        5.961348       12.504126        2.133715        0.144905
  |   697        8.622280       -0.622280        3.847689        4.764734        0.009858
  |   698        8.609180       -0.609180        3.848009        4.751011        0.010160
  |   699        8.609188       -0.609188        3.845721        4.753026        0.010441
  |   700        8.580872       -0.580872        3.857554        4.713110        0.010208
  |   701       20.851322        1.148678        6.028779       12.509376        2.169647        0.143519
  |   702       20.930221        1.069779        6.048767       12.526780        2.209643        0.145031
  |   703        8.580869       -0.580869        3.857555        4.713107        0.010208
  |   704        8.346526       -0.346526        3.896208        4.438704        0.011614
  |   705        8.131962       -0.131962        3.951907        4.173355        0.006701
  |   706       21.318771        0.681229        6.426196       12.425831        2.405383        0.061360
  |   707       21.368612        0.631388        6.468755       12.436559        2.402002        0.061295
  |   708        8.646793       -0.646793        3.855412        4.776640        0.014741
  |   709        8.602630       -0.602630        3.847871        4.742240        0.012519
  |   710        8.636196       -0.636196        3.847397        4.779271        0.009528
  |   711        8.625865       -0.625865        3.847522        4.768429        0.009914
  |   712       20.752453        1.247547        5.962209       12.497804        2.148954        0.143486
  |   713       20.758108        1.241892        5.969191       12.497519        2.147638        0.143760
  |   714        8.627450       -0.627450        3.845992        4.771499        0.009960
  |   715        8.611947       -0.611947        3.848080        4.753739        0.010128
  |   716        8.624569       -0.624569        3.846833        4.767844        0.009893
  |   717        8.623729       -0.623729        3.847756        4.766085        0.009888
  |   718       20.750422        1.249578        5.962301       12.507718        2.135609        0.144794
  |   719       20.750666        1.249334        5.962522       12.507477        2.135880        0.144787
  |   720        8.623828       -0.623828        3.847779        4.766163        0.009886
  |   721        8.619722       -0.619722        3.848470        4.761265        0.009988
  |   722        8.626157       -0.626157        3.847243        4.769088        0.009826
  |   723        8.624057       -0.624057        3.847764        4.766415        0.009878
  |   724       20.751732        1.248268        5.963070       12.508306        2.135506        0.144850
  |   725       20.751558        1.248442        5.963019       12.508419        2.135238        0.144882
  |   726        8.624081       -0.624081        3.847761        4.766442        0.009877
  |   727        8.619680       -0.619680        3.848530        4.761177        0.009973
  |   728        8.626492       -0.626492        3.847299        4.769371        0.009822
  |   729        8.624074       -0.624074        3.847767        4.766429        0.009878
  |   730       20.751778        1.248222        5.963108       12.508320        2.135499        0.144851
  |   731       20.751502        1.248498        5.963043       12.508503        2.135056        0.144899
  |   732        8.624083       -0.624083        3.847765        4.766440        0.009878
  |   733        8.619841       -0.619841        3.848479        4.761398        0.009964
  |   734        8.626459       -0.626459        3.847274        4.769350        0.009836
  |   735        8.623878       -0.623878        3.847783        4.766215        0.009880
  |   736       20.751009        1.248991        5.962818       12.508181        2.135147        0.144863
  |   737       20.751227        1.248773        5.962765       12.508042        2.135558        0.144863
  |   738        8.623884       -0.623884        3.847782        4.766223        0.009880
  |   739        8.619692       -0.619692        3.848495        4.761194        0.010003
  |   740        8.624035       -0.624035        3.847084        4.767091        0.009860
  |   741        8.622280       -0.622280        3.847689        4.764733        0.009858
  |   742       20.747703        1.252297        5.962264       12.505754        2.135126        0.144559
  |   743       20.744094        1.255906        5.961348       12.504126        2.133715        0.144905
  |   744        8.622280       -0.622280        3.847689        4.764734        0.009858
  |   745        8.609180       -0.609180        3.848009        4.751011        0.010160
  |   746        8.609188       -0.609188        3.845721        4.753026        0.010441
  |   747        8.580872       -0.580872        3.857554        4.713110        0.010208
  |   748       20.851322        1.148678        6.028779       12.509376        2.169647        0.143519
  |   749       20.930221        1.069779        6.048767       12.526780        2.209643        0.145031
  |   750        8.580869       -0.580869        3.857555        4.713107        0.010208
  |   751        8.346526       -0.346526        3.896208        4.438704        0.011614
  |   752        8.131961       -0.131961        3.951907        4.173354        0.006701
  |
  | Total     9600.000000        1.000000
 
  Writing Mulliken decomposition to disk ...

  Mulliken analysis                                       :  max(cpu_time)    wall_clock(cpu1)
  | Time for Mulliken analysis                            :         50.876              50.915
  | Total time for Mulliken analysis                      :         50.876              50.915
------------------------------------------------------------

------------------------------------------------------------------------------
  Final output of selected total energy values:

  The following output summarizes some interesting total energy values
  at the end of a run (AFTER all relaxation, molecular dynamics, etc.).

  | Total energy of the DFT / Hartree-Fock s.c.f. calculation      :       -6982182.602699874 eV
  | Final zero-broadening corrected energy (caution - metals only) :       -6982182.777299029 eV
  | For reference only, the value of 1 Hartree used in FHI-aims is :             27.211384500 eV
  | For reference only, the overall average (free atom contribution
  | + realspace contribution) of the electrostatic potential after
  | s.c.f. convergence is                                          :             -5.226209341 eV

  Before relying on these values, please be sure to understand exactly which
  total energy value is referred to by a given number. Different objects may
  all carry the same name 'total energy'. Definitions:

  Total energy of the DFT / Hartree-Fock s.c.f. calculation:
  | Note that this energy does not include ANY quantities calculated after the
  | s.c.f. cycle, in particular not ANY RPA, MP2, etc. many-body perturbation terms.

  Final zero-broadening corrected energy:
  | For metallic systems only, a broadening of the occupation numbers at the Fermi
  | level can be extrapolated back to zero broadening by an electron-gas inspired
  | formula. For all systems that are not real metals, this value can be
  | meaningless and should be avoided.

------------------------------------------------------------------------------
  Methods described in the following list of references were used in this FHI-aims run.
  If you publish the results, please make sure to cite these reference if they apply.
  FHI-aims is an academic code, and for our developers (often, Ph.D. students
  and postdocs), scientific credit in the community is essential.
  Thank you for helping us!

  For any use of FHI-aims, please cite:

    Volker Blum, Ralf Gehrke, Felix Hanke, Paula Havu, Ville Havu,
    Xinguo Ren, Karsten Reuter, and Matthias Scheffler
    'Ab initio molecular simulations with numeric atom-centered orbitals'
    Computer Physics Communications 180, 2175-2196 (2009)
    http://doi.org/10.1016/j.cpc.2009.06.022


  The provided symmetry information was generated with SPGlib:

    Atsushi Togo, Yusuke Seto, Dimitar Pashov
    SPGlib 1.7.3 obtained from http://spglib.sourceforge.net
    Licence: New BSD license
    Copyright (C) 2008 Atsushi Togo


  The ELSI infrastructure was used in your run to solve the Kohn-Sham electronic structure.
  Please check out https://wordpress.elsi-interchange.org to learn more.
  If scalability is important for your project, please acknowledge ELSI by citing:

    V. W-z. Yu, F. Corsetti, A. Garcia, W. P. Huhn, M. Jacquelin, W. Jia,
    B. Lange, L. Lin, J. Lu, W. Mi, A. Seifitokaldani, A. Vazquez-Mayagoitia,
    C. Yang, H. Yang, and V. Blum
    'ELSI: A unified software interface for Kohn-Sham electronic structure solvers'
    Computer Physics Communications 222, 267-285 (2018).
    http://doi.org/10.1016/j.cpc.2017.09.007


  For the real-space grid partitioning and parallelization used in this calculation, please cite:

    Ville Havu, Volker Blum, Paula Havu, and Matthias Scheffler,
    'Efficient O(N) integration for all-electron electronic structure calculation'
    'using numerically tabulated basis functions'
    Journal of Computational Physics 228, 8367-8379 (2009).
    http://doi.org/10.1016/j.jcp.2009.08.008

  Of course, there are many other important community references, e.g., those cited in the
  above references. Our list is limited to references that describe implementations in the
  FHI-aims code. The reason is purely practical (length of this list) - please credit others as well.

   One or more s.c.f. cycles took more than 50 s.c.f. iterations.
   It might be worth adjusting your convergence settings. For example,
   metals need a larger broadening and a smaller "charge_mix_param" value than semiconductors.

------------------------------------------------------------
          Leaving FHI-aims.
          Date     :  20241007, Time     :  021433.325

          Computational steps:
          | Number of self-consistency cycles          :          113
          | Number of SCF (re)initializations          :            1

          Detailed time accounting                     :  max(cpu_time)    wall_clock(cpu1)
          | Total time                                  :    30680.275 s       30683.485 s
          | Preparation time                            :        0.328 s           0.326 s
          | Boundary condition initalization            :        0.573 s           0.573 s
          | Grid partitioning                           :       25.371 s          25.372 s
          | Preloading free-atom quantities on grid     :       32.605 s          32.606 s
          | Free-atom superposition energy              :        4.726 s           4.726 s
          | Total time for integrations                 :     2022.595 s        2022.665 s
          | Total time for solution of K.-S. equations  :    10062.317 s       10063.678 s
          | Total time for density update               :     4270.488 s        4270.826 s
          | Total time for mixing & preconditioning     :    13303.117 s       13303.605 s
          | Total time for Hartree multipole update     :        4.958 s           4.956 s
          | Total time for Hartree multipole sum        :      898.109 s         898.148 s
          | Total time for total energy evaluation      :        0.066 s           0.246 s
          | Total time for scaled ZORA corrections      :        0.000 s           0.000 s
          | Total time for Mulliken analysis            :       50.944 s          50.915 s

          Partial memory accounting:
          | Residual value for overall tracked memory usage across tasks:     0.000000 MB (should be 0.000000 MB)
          | Peak values for overall tracked memory usage:
          |   Minimum:      694.980 MB (on task 15 after allocating mulliken_decomp)
          |   Maximum:      705.743 MB (on task 21 after allocating mulliken_decomp)
          |   Average:      700.584 MB
          | Largest tracked array allocation:
          |   Minimum:      176.617 MB (mulliken_decomp on task  0)
          |   Maximum:      176.617 MB (mulliken_decomp on task  0)
          |   Average:      176.617 MB
          Note:  These values currently only include a subset of arrays which are explicitly tracked.
          The "true" memory usage will be greater.

          Have a nice day.
------------------------------------------------------------
