------------------------------------------------------------
          Invoking FHI-aims ...

          When using FHI-aims, please cite the following reference:

            Volker Blum, Ralf Gehrke, Felix Hanke, Paula Havu,
            Ville Havu, Xinguo Ren, Karsten Reuter, and Matthias Scheffler,
            'Ab Initio Molecular Simulations with Numeric Atom-Centered Orbitals',
            Computer Physics Communications 180, 2175-2196 (2009)

          In addition, many other developments in FHI-aims are likely important for
          your particular application. If so, please cite them. A partial list of references
          is written at the end of this file. Thank you for giving credit to the authors
          of these developments.

          For general information about FHI-aims please find us at

            https://fhi-aims.org

          Online tutorials can be found at

            https://fhi-aims-club.gitlab.io/tutorials/tutorials-overview/

          For any questions about FHI-aims, please visit our slack channel at

            https://fhi-aims.slack.com

          and our main development and support site at

            https://aims-git.rz-berlin.mpg.de .

          The latter site, in particular, has a wiki to collect information, as well
          as an issue tracker to log discussions, suggest improvements, and report issues
          or bugs. https://aims-git.rz-berlin.mpg.de is also the main development site
          of the project and all new and updated code versions can be obtained there.
          Please send an email to aims-coordinators@fhi-berlin.mpg.de and we will add
          you to these sites. They are for you and everyone is welcome there.

------------------------------------------------------------



  Date     :  20240819, Time     :  011209.068
  Time zero on CPU 1             :   0.767101000000000E+00  s.
  Internal wall clock time zero  :           493261929.068  s.

  FHI-aims created a unique identifier for this run for later identification
  aims_uuid : E376C282-1725-49D7-A66C-9DE8229E3E20

  Build configuration of the current instance of FHI-aims
  -------------------------------------------------------
  FHI-aims version      : 240605
  Commit number         : b001b2e18
  CMake host system     : Linux-6.5.0-41-generic
  CMake version         : 3.22.1
  Fortran compiler      : /opt/intel/oneapi/mpi/2021.12/bin/mpiifort (IntelLLVM) version 2024.1.0
  Fortran compiler flags: -fc=ifx -O3 -ip -fp-model precise
  C compiler            : /opt/intel/oneapi/mpi/2021.12/bin/mpiicc (IntelLLVM) version 2024.1.0
  C compiler flags      : -cc=icx -O3 -ip -fp-model precise -std=gnu99
  C++ compiler          : /opt/intel/oneapi/mpi/2021.12/bin/mpiicpc (IntelLLVM) version 2024.1.0
  C++ compiler flags    : -cxx=icpx -O3 -ip -fp-model precise -std=c++11
  HIP compiler          :
  HIP compiler flags    :
  HIP GPU arch          :
  Using MPI
  Using ScaLAPACK
  Using LibXC
  Using i-PI
  Using RLSY
  Linking against: /opt/intel/oneapi/mkl/2024.1/lib/intel64/libmkl_intel_lp64.so
                   /opt/intel/oneapi/mkl/2024.1/lib/intel64/libmkl_sequential.so
                   /opt/intel/oneapi/mkl/2024.1/lib/intel64/libmkl_core.so
                   /opt/intel/oneapi/mkl/2024.1/lib/intel64/libmkl_blacs_intelmpi_lp64.so
                   /opt/intel/oneapi/mkl/2024.1/lib/intel64/libmkl_scalapack_lp64.so
                   /opt/intel/oneapi/mkl/2024.1/lib/intel64/libmkl_core.so

  Using      128 parallel tasks.
  Task        0 on host RSL-arvutus reporting.
  Task        1 on host RSL-arvutus reporting.
  Task        2 on host RSL-arvutus reporting.
  Task        3 on host RSL-arvutus reporting.
  Task        4 on host RSL-arvutus reporting.
  Task        5 on host RSL-arvutus reporting.
  Task        6 on host RSL-arvutus reporting.
  Task        7 on host RSL-arvutus reporting.
  Task        8 on host RSL-arvutus reporting.
  Task        9 on host RSL-arvutus reporting.
  Task       10 on host RSL-arvutus reporting.
  Task       11 on host RSL-arvutus reporting.
  Task       12 on host RSL-arvutus reporting.
  Task       13 on host RSL-arvutus reporting.
  Task       14 on host RSL-arvutus reporting.
  Task       15 on host RSL-arvutus reporting.
  Task       16 on host RSL-arvutus reporting.
  Task       17 on host RSL-arvutus reporting.
  Task       18 on host RSL-arvutus reporting.
  Task       19 on host RSL-arvutus reporting.
  Task       20 on host RSL-arvutus reporting.
  Task       21 on host RSL-arvutus reporting.
  Task       22 on host RSL-arvutus reporting.
  Task       23 on host RSL-arvutus reporting.
  Task       24 on host RSL-arvutus reporting.
  Task       25 on host RSL-arvutus reporting.
  Task       26 on host RSL-arvutus reporting.
  Task       27 on host RSL-arvutus reporting.
  Task       28 on host RSL-arvutus reporting.
  Task       29 on host RSL-arvutus reporting.
  Task       30 on host RSL-arvutus reporting.
  Task       31 on host RSL-arvutus reporting.
  Task       32 on host RSL-arvutus reporting.
  Task       33 on host RSL-arvutus reporting.
  Task       34 on host RSL-arvutus reporting.
  Task       35 on host RSL-arvutus reporting.
  Task       36 on host RSL-arvutus reporting.
  Task       37 on host RSL-arvutus reporting.
  Task       38 on host RSL-arvutus reporting.
  Task       39 on host RSL-arvutus reporting.
  Task       40 on host RSL-arvutus reporting.
  Task       41 on host RSL-arvutus reporting.
  Task       42 on host RSL-arvutus reporting.
  Task       43 on host RSL-arvutus reporting.
  Task       44 on host RSL-arvutus reporting.
  Task       45 on host RSL-arvutus reporting.
  Task       46 on host RSL-arvutus reporting.
  Task       47 on host RSL-arvutus reporting.
  Task       48 on host RSL-arvutus reporting.
  Task       49 on host RSL-arvutus reporting.
  Task       50 on host RSL-arvutus reporting.
  Task       51 on host RSL-arvutus reporting.
  Task       52 on host RSL-arvutus reporting.
  Task       53 on host RSL-arvutus reporting.
  Task       54 on host RSL-arvutus reporting.
  Task       55 on host RSL-arvutus reporting.
  Task       56 on host RSL-arvutus reporting.
  Task       57 on host RSL-arvutus reporting.
  Task       58 on host RSL-arvutus reporting.
  Task       59 on host RSL-arvutus reporting.
  Task       60 on host RSL-arvutus reporting.
  Task       61 on host RSL-arvutus reporting.
  Task       62 on host RSL-arvutus reporting.
  Task       63 on host RSL-arvutus reporting.
  Task       64 on host RSL-arvutus reporting.
  Task       65 on host RSL-arvutus reporting.
  Task       66 on host RSL-arvutus reporting.
  Task       67 on host RSL-arvutus reporting.
  Task       68 on host RSL-arvutus reporting.
  Task       69 on host RSL-arvutus reporting.
  Task       70 on host RSL-arvutus reporting.
  Task       71 on host RSL-arvutus reporting.
  Task       72 on host RSL-arvutus reporting.
  Task       73 on host RSL-arvutus reporting.
  Task       74 on host RSL-arvutus reporting.
  Task       75 on host RSL-arvutus reporting.
  Task       76 on host RSL-arvutus reporting.
  Task       77 on host RSL-arvutus reporting.
  Task       78 on host RSL-arvutus reporting.
  Task       79 on host RSL-arvutus reporting.
  Task       80 on host RSL-arvutus reporting.
  Task       81 on host RSL-arvutus reporting.
  Task       82 on host RSL-arvutus reporting.
  Task       83 on host RSL-arvutus reporting.
  Task       84 on host RSL-arvutus reporting.
  Task       85 on host RSL-arvutus reporting.
  Task       86 on host RSL-arvutus reporting.
  Task       87 on host RSL-arvutus reporting.
  Task       88 on host RSL-arvutus reporting.
  Task       89 on host RSL-arvutus reporting.
  Task       90 on host RSL-arvutus reporting.
  Task       91 on host RSL-arvutus reporting.
  Task       92 on host RSL-arvutus reporting.
  Task       93 on host RSL-arvutus reporting.
  Task       94 on host RSL-arvutus reporting.
  Task       95 on host RSL-arvutus reporting.
  Task       96 on host RSL-arvutus reporting.
  Task       97 on host RSL-arvutus reporting.
  Task       98 on host RSL-arvutus reporting.
  Task       99 on host RSL-arvutus reporting.
  Task      100 on host RSL-arvutus reporting.
  Task      101 on host RSL-arvutus reporting.
  Task      102 on host RSL-arvutus reporting.
  Task      103 on host RSL-arvutus reporting.
  Task      104 on host RSL-arvutus reporting.
  Task      105 on host RSL-arvutus reporting.
  Task      106 on host RSL-arvutus reporting.
  Task      107 on host RSL-arvutus reporting.
  Task      108 on host RSL-arvutus reporting.
  Task      109 on host RSL-arvutus reporting.
  Task      110 on host RSL-arvutus reporting.
  Task      111 on host RSL-arvutus reporting.
  Task      112 on host RSL-arvutus reporting.
  Task      113 on host RSL-arvutus reporting.
  Task      114 on host RSL-arvutus reporting.
  Task      115 on host RSL-arvutus reporting.
  Task      116 on host RSL-arvutus reporting.
  Task      117 on host RSL-arvutus reporting.
  Task      118 on host RSL-arvutus reporting.
  Task      119 on host RSL-arvutus reporting.
  Task      120 on host RSL-arvutus reporting.
  Task      121 on host RSL-arvutus reporting.
  Task      122 on host RSL-arvutus reporting.
  Task      123 on host RSL-arvutus reporting.
  Task      124 on host RSL-arvutus reporting.
  Task      125 on host RSL-arvutus reporting.
  Task      126 on host RSL-arvutus reporting.
  Task      127 on host RSL-arvutus reporting.

  Memory overcommitment is allowed on your operating system.

  Obtaining array dimensions for all initial allocations:
  
  -----------------------------------------------------------------------
  Parsing control.in (first pass over file, find array dimensions only).
  The contents of control.in will be repeated verbatim below
  unless switched off by setting 'verbatim_writeout .false.' .
  in the first line of control.in .
  -----------------------------------------------------------------------
  
  xc              scan
  relativistic    atomic_zora scalar
  k_grid          6 6 6
  relax_geometry  bfgs 5e-3
  relax_unit_cell full
  ################################################################################
  #
  #  FHI-aims code project
  #  VB, Fritz-Haber Institut, 2009
  #
  #  Suggested "light" defaults for Ti atom (to be pasted into control.in file)
  #  Be sure to double-check any results obtained with these settings for post-processing,
  #  e.g., with the "tight" defaults and larger basis sets.
  #
  ################################################################################
    species        Ti
  #     global species definitions
      nucleus             22
      mass                47.867
  #
      l_hartree           4
  #
      cut_pot             3.5          1.5  1.0
      basis_dep_cutoff    1e-4
  #
      radial_base         48 5.0
      radial_multiplier   1
      angular_grids       specified
        division   0.5171   50
        division   0.9824  110
        division   1.2917  194
        division   1.4940  302
  #      division   1.6934  434
  #      division   1.8425  590
  #      division   2.1901  770
  #      division   2.2896  974
  #      division   2.8244 1202
  #      outer_grid  974
        outer_grid  302
  ################################################################################
  #
  #  Definition of "minimal" basis
  #
  ################################################################################
  #     valence basis states
      valence      4  s   2.
      valence      3  p   6.
      valence      3  d   2.
  #     ion occupancy
      ion_occ      4  s   1.
      ion_occ      3  p   6.
      ion_occ      3  d   1.
  ################################################################################
  #
  #  Suggested additional basis functions. For production calculations,
  #  uncomment them one after another (the most important basis functions are
  #  listed first).
  #
  #  Constructed for dimers: 1.6 A, 1.85 A, 2.5 A, 3.25 A, 4.25 A
  #
  ################################################################################
  #  "First tier" - improvements: -396.25 meV to -19.41 meV
       hydro 4 f 8
       hydro 3 d 2.7
       ionic 4 p auto
  #     hydro 5 g 11.6
       ionic 4 s auto
  #  "Second tier" - improvements: -16.30 meV to -2.03 meV
  #     hydro 3 d 4.4
  #     hydro 6 h 16
  #     hydro 4 f 9.4
  #     hydro 4 p 4.5
  #     hydro 1 s 0.5
  #  "Third tier" - improvements: -6.28 meV to -0.37 meV
  #     hydro 4 d 6.4
  #     hydro 4 f 10
  #     hydro 5 g 12
  #     hydro 2 p 1.7
  #     hydro 6 h 16.4
  #     hydro 4 s 3.8
  #  Further basis functions: -0.45 meV and smaller improvements
  #     hydro 3 d 8.8
  #     hydro 5 p 18
  #     hydro 4 f 22.4
  #     hydro 5 f 7.2  # -0.16 meV
  #     hydro 3 d 2.1  # -0.11 meV
  #     hydro 5 g 7.4  # -0.09 meV
  ################################################################################
  #
  #  FHI-aims code project
  #  VB, Fritz-Haber Institut, 2009
  #
  #  Suggested "light" defaults for O atom (to be pasted into control.in file)
  #  Be sure to double-check any results obtained with these settings for post-processing,
  #  e.g., with the "tight" defaults and larger basis sets.
  #
  ################################################################################
    species        O
  #     global species definitions
      nucleus             8
      mass                15.9994
  #
      l_hartree           4
  #
      cut_pot             3.5  1.5  1.0
      basis_dep_cutoff    1e-4
  #
      radial_base         36 5.0
      radial_multiplier   1
       angular_grids specified
        division   0.2659   50
        division   0.4451  110
        division   0.6052  194
        division   0.7543  302
  #      division   0.8014  434
  #      division   0.8507  590
  #      division   0.8762  770
  #      division   0.9023  974
  #      division   1.2339 1202
  #      outer_grid 974
        outer_grid 302
  ################################################################################
  #
  #  Definition of "minimal" basis
  #
  ################################################################################
  #     valence basis states
      valence      2  s   2.
      valence      2  p   4.
  #     ion occupancy
      ion_occ      2  s   1.
      ion_occ      2  p   3.
  ################################################################################
  #
  #  Suggested additional basis functions. For production calculations,
  #  uncomment them one after another (the most important basis functions are
  #  listed first).
  #
  #  Constructed for dimers: 1.0 A, 1.208 A, 1.5 A, 2.0 A, 3.0 A
  #
  ################################################################################
  #  "First tier" - improvements: -699.05 meV to -159.38 meV
       hydro 2 p 1.8
       hydro 3 d 7.6
       hydro 3 s 6.4
  #  "Second tier" - improvements: -49.91 meV to -5.39 meV
  #     hydro 4 f 11.6
  #     hydro 3 p 6.2
  #     hydro 3 d 5.6
  #     hydro 5 g 17.6
  #     hydro 1 s 0.75
  #  "Third tier" - improvements: -2.83 meV to -0.50 meV
  #     ionic 2 p auto
  #     hydro 4 f 10.8
  #     hydro 4 d 4.7
  #     hydro 2 s 6.8
  #  "Fourth tier" - improvements: -0.40 meV to -0.12 meV
  #     hydro 3 p 5
  #     hydro 3 s 3.3
  #     hydro 5 g 15.6
  #     hydro 4 f 17.6
  #     hydro 4 d 14
  # Further basis functions - -0.08 meV and below
  #     hydro 3 s 2.1
  #     hydro 4 d 11.6
  #     hydro 3 p 16
  #     hydro 2 s 17.2
  
  -----------------------------------------------------------------------
  Completed first pass over input file control.in .
  -----------------------------------------------------------------------
  
  
  -----------------------------------------------------------------------
  Parsing geometry.in (first pass over file, find array dimensions only).
  The contents of geometry.in will be repeated verbatim below
  unless switched off by setting 'verbatim_writeout .false.' .
  in the first line of geometry.in .
  -----------------------------------------------------------------------
  
  lattice_vector 4.594000 0.000000 0.000000
  lattice_vector 0.000000 4.594000 0.000000
  lattice_vector 0.000000 0.000000 2.958000
  
  atom_frac 0.000000 0.000000 0.000000 Ti
  atom_frac 0.500000 0.500000 0.500000 Ti
  atom_frac 0.305000 0.305000 0.000000 O
  atom_frac 0.695000 0.695000 0.000000 O
  atom_frac 0.305000 0.695000 0.500000 O
  atom_frac 0.695000 0.305000 0.500000 O
  
  -----------------------------------------------------------------------
  Completed first pass over input file geometry.in .
  -----------------------------------------------------------------------
  

  Basic array size parameters:
  | Number of species                 :        2
  | Number of atoms                   :        6
  | Number of lattice vectors         :        3
  | Max. basis fn. angular momentum   :        3
  | Max. atomic/ionic basis occupied n:        4
  | Max. number of basis fn. types    :        3
  | Max. radial fns per species/type  :        7
  | Max. logarithmic grid size        :     1383
  | Max. radial integration grid size :       48
  | Max. angular integration grid size:      302
  | Max. angular grid division number :        8
  | Radial grid for Hartree potential :     1383
  | Number of spin channels           :        1

------------------------------------------------------------
          Reading file control.in.
------------------------------------------------------------
  WARNING: The in-house xc SCAN implementation has been deprecated.
  WARNING: Using xc dfauto SCAN implementation instead.
  XC: Using the parameter-free meta-GGA functional SCAN.
  Scalar relativistic treatment of kinetic energy: on-site free-atom approximation to ZORA.
  Found k-point grid:         6         6         6
  Geometry relaxation: Modified BFGS - TRM (trust radius method) for lattice optimization.
  Convergence accuracy for geometry relaxation: Maximum force <   0.500000E-02 eV/A.
 
  Reading configuration options for species Ti                  .
  | Found nuclear charge :  22.0000
  | Found atomic mass :    47.8670000000000      amu
  | Found l_max for Hartree potential  :   4
  | Found cutoff potl. onset [A], width [A], scale factor :    3.50000    1.50000    1.00000
  | Threshold for basis-dependent cutoff potential is   0.100000E-03
  | Found data for basic radial integration grid :    48 points, outermost radius =    5.000 A
  | Found multiplier for basic radial grid :   1
  | Found angular grid specification: user-specified.
  | Specified grid contains     5 separate shells.
  | Check grid settings after all constraints further below.
  | Found free-atom valence shell :  4 s   2.000
  | Found free-atom valence shell :  3 p   6.000
  | Found free-atom valence shell :  3 d   2.000
  | Found free-ion valence shell :  4 s   1.000
  | Found free-ion valence shell :  3 p   6.000
  | Found free-ion valence shell :  3 d   1.000
  | Found hydrogenic basis function :  4 f   8.000
  | Found hydrogenic basis function :  3 d   2.700
  | Found ionic basis function :  4 p , default cutoff radius.
  | Found ionic basis function :  4 s , default cutoff radius.
 | Encountered keyword species, ending the description of species Ti                  .
  Species Ti                  : Missing cutoff potential type.
  Defaulting to exp(1/x)/(1-x)^2 type cutoff potential.
  Species Ti: No 'logarithmic' tag. Using default grid for free atom:
  | Default logarithmic grid data [bohr] : 0.1000E-03 0.1000E+03 0.1012E+01
  | Will include ionic basis functions of  2.0-fold positive Ti                   ion.
  Species Ti: On-site basis accuracy parameter (for Gram-Schmidt orthonormalisation) not specified.
  Using default value basis_acc =  0.1000000E-03.
  Species Ti                  : Using default innermost maximum threshold i_radial=  2 for radial functions.
  Species Ti                  : Default cutoff onset for free atom density etc. : 0.35000000E+01 AA.
  Species Ti                  : Basic radial grid will be enhanced according to radial_multiplier =   1, to contain    48 grid points.
 
  Reading configuration options for species O                   .
  | Found nuclear charge :   8.0000
  | Found atomic mass :    15.9994000000000      amu
  | Found l_max for Hartree potential  :   4
  | Found cutoff potl. onset [A], width [A], scale factor :    3.50000    1.50000    1.00000
  | Threshold for basis-dependent cutoff potential is   0.100000E-03
  | Found data for basic radial integration grid :    36 points, outermost radius =    5.000 A
  | Found multiplier for basic radial grid :   1
  | Found angular grid specification: user-specified.
  | Specified grid contains     5 separate shells.
  | Check grid settings after all constraints further below.
  | Found free-atom valence shell :  2 s   2.000
  | Found free-atom valence shell :  2 p   4.000
  | Found free-ion valence shell :  2 s   1.000
  | Found free-ion valence shell :  2 p   3.000
  | Found hydrogenic basis function :  2 p   1.800
  | Found hydrogenic basis function :  3 d   7.600
  | Found hydrogenic basis function :  3 s   6.400
  Species O                   : Missing cutoff potential type.
  Defaulting to exp(1/x)/(1-x)^2 type cutoff potential.
  Species O : No 'logarithmic' tag. Using default grid for free atom:
  | Default logarithmic grid data [bohr] : 0.1000E-03 0.1000E+03 0.1012E+01
  Species O : On-site basis accuracy parameter (for Gram-Schmidt orthonormalisation) not specified.
  Using default value basis_acc =  0.1000000E-03.
  Species O                   : Using default innermost maximum threshold i_radial=  2 for radial functions.
  Species O                   : Default cutoff onset for free atom density etc. : 0.35000000E+01 AA.
  Species O                   : Basic radial grid will be enhanced according to radial_multiplier =   1, to contain    36 grid points.
 
  Finished reading input file 'control.in'.
 
------------------------------------------------------------


------------------------------------------------------------
          Reading geometry description geometry.in.
------------------------------------------------------------
  | The smallest distance between any two atoms is         1.26689494 AA.
  | The first atom of this pair is atom number                      2 .
  | The second atom of this pair is atom number                     6 .
  | Wigner-Seitz cell of the first atom image           0     1     0 .
  | (The Wigner-Seitz cell of the second atom is 0 0 0  by definition.)

  Symmetry information by spglib:
  | Precision set to  0.1E-04
  | Number of Operations  : 8
  | Space group           : 65
  | International         : Cmmm
  | Schoenflies           : D2h^19
  Input structure read successfully.
  The structure contains        6 atoms,  and a total of         76.000 electrons.

  Input geometry:
  | Unit cell:
  |        4.59400000        0.00000000        0.00000000
  |        0.00000000        4.59400000        0.00000000
  |        0.00000000        0.00000000        2.95800000
  | Atomic structure:
  |       Atom                x [A]            y [A]            z [A]
  |    1: Species Ti            0.00000000        0.00000000        0.00000000
  |    2: Species Ti            2.29700000        2.29700000        1.47900000
  |    3: Species O             1.40117000        1.40117000        0.00000000
  |    4: Species O             3.19283000        3.19283000        0.00000000
  |    5: Species O             1.40117000        3.19283000        1.47900000
  |    6: Species O             3.19283000        1.40117000        1.47900000

  Lattice parameters for 3D lattice (in Angstroms) :     4.594000    4.594000    2.958000
  Angle(s) between unit vectors (in degrees)       :    90.000000   90.000000   90.000000


  Quantities derived from the lattice vectors (in Angstrom^-1):
  | Reciprocal lattice vector 1:  1.367694  0.000000  0.000000
  | Reciprocal lattice vector 2:  0.000000  1.367694  0.000000
  | Reciprocal lattice vector 3:  0.000000  0.000000  2.124133
  | Unit cell volume                               :   0.624281E+02  Angstrom^3

  Fractional coordinates:
                         L1                L2                L3
       atom_frac         0.00000000        0.00000000        0.00000000  Ti
       atom_frac         0.50000000        0.50000000        0.50000000  Ti
       atom_frac         0.30500000        0.30500000        0.00000000  O
       atom_frac         0.69500000        0.69500000        0.00000000  O
       atom_frac         0.30500000        0.69500000        0.50000000  O
       atom_frac         0.69500000        0.30500000        0.50000000  O

  Slab Identifier: This seems to be a bulk system.
 
  Finished reading input file 'geometry.in'.
 

 
  Consistency checks for stacksize environment parameter are next.
 
  | Maximum stacksize for task 0: unlimited
  | Maximum stacksize for task 1: unlimited
  | Maximum stacksize for task 2: unlimited
  | Maximum stacksize for task 3: unlimited
  | Maximum stacksize for task 4: unlimited
  | Maximum stacksize for task 5: unlimited
  | Maximum stacksize for task 6: unlimited
  | Maximum stacksize for task 7: unlimited
  | Maximum stacksize for task 8: unlimited
  | Maximum stacksize for task 9: unlimited
  | Maximum stacksize for task 10: unlimited
  | Maximum stacksize for task 11: unlimited
  | Maximum stacksize for task 12: unlimited
  | Maximum stacksize for task 13: unlimited
  | Maximum stacksize for task 14: unlimited
  | Maximum stacksize for task 15: unlimited
  | Maximum stacksize for task 16: unlimited
  | Maximum stacksize for task 17: unlimited
  | Maximum stacksize for task 18: unlimited
  | Maximum stacksize for task 19: unlimited
  | Maximum stacksize for task 20: unlimited
  | Maximum stacksize for task 21: unlimited
  | Maximum stacksize for task 22: unlimited
  | Maximum stacksize for task 23: unlimited
  | Maximum stacksize for task 24: unlimited
  | Maximum stacksize for task 25: unlimited
  | Maximum stacksize for task 26: unlimited
  | Maximum stacksize for task 27: unlimited
  | Maximum stacksize for task 28: unlimited
  | Maximum stacksize for task 29: unlimited
  | Maximum stacksize for task 30: unlimited
  | Maximum stacksize for task 31: unlimited
  | Maximum stacksize for task 32: unlimited
  | Maximum stacksize for task 33: unlimited
  | Maximum stacksize for task 34: unlimited
  | Maximum stacksize for task 35: unlimited
  | Maximum stacksize for task 36: unlimited
  | Maximum stacksize for task 37: unlimited
  | Maximum stacksize for task 38: unlimited
  | Maximum stacksize for task 39: unlimited
  | Maximum stacksize for task 40: unlimited
  | Maximum stacksize for task 41: unlimited
  | Maximum stacksize for task 42: unlimited
  | Maximum stacksize for task 43: unlimited
  | Maximum stacksize for task 44: unlimited
  | Maximum stacksize for task 45: unlimited
  | Maximum stacksize for task 46: unlimited
  | Maximum stacksize for task 47: unlimited
  | Maximum stacksize for task 48: unlimited
  | Maximum stacksize for task 49: unlimited
  | Maximum stacksize for task 50: unlimited
  | Maximum stacksize for task 51: unlimited
  | Maximum stacksize for task 52: unlimited
  | Maximum stacksize for task 53: unlimited
  | Maximum stacksize for task 54: unlimited
  | Maximum stacksize for task 55: unlimited
  | Maximum stacksize for task 56: unlimited
  | Maximum stacksize for task 57: unlimited
  | Maximum stacksize for task 58: unlimited
  | Maximum stacksize for task 59: unlimited
  | Maximum stacksize for task 60: unlimited
  | Maximum stacksize for task 61: unlimited
  | Maximum stacksize for task 62: unlimited
  | Maximum stacksize for task 63: unlimited
  | Maximum stacksize for task 64: unlimited
  | Maximum stacksize for task 65: unlimited
  | Maximum stacksize for task 66: unlimited
  | Maximum stacksize for task 67: unlimited
  | Maximum stacksize for task 68: unlimited
  | Maximum stacksize for task 69: unlimited
  | Maximum stacksize for task 70: unlimited
  | Maximum stacksize for task 71: unlimited
  | Maximum stacksize for task 72: unlimited
  | Maximum stacksize for task 73: unlimited
  | Maximum stacksize for task 74: unlimited
  | Maximum stacksize for task 75: unlimited
  | Maximum stacksize for task 76: unlimited
  | Maximum stacksize for task 77: unlimited
  | Maximum stacksize for task 78: unlimited
  | Maximum stacksize for task 79: unlimited
  | Maximum stacksize for task 80: unlimited
  | Maximum stacksize for task 81: unlimited
  | Maximum stacksize for task 82: unlimited
  | Maximum stacksize for task 83: unlimited
  | Maximum stacksize for task 84: unlimited
  | Maximum stacksize for task 85: unlimited
  | Maximum stacksize for task 86: unlimited
  | Maximum stacksize for task 87: unlimited
  | Maximum stacksize for task 88: unlimited
  | Maximum stacksize for task 89: unlimited
  | Maximum stacksize for task 90: unlimited
  | Maximum stacksize for task 91: unlimited
  | Maximum stacksize for task 92: unlimited
  | Maximum stacksize for task 93: unlimited
  | Maximum stacksize for task 94: unlimited
  | Maximum stacksize for task 95: unlimited
  | Maximum stacksize for task 96: unlimited
  | Maximum stacksize for task 97: unlimited
  | Maximum stacksize for task 98: unlimited
  | Maximum stacksize for task 99: unlimited
  | Maximum stacksize for task 100: unlimited
  | Maximum stacksize for task 101: unlimited
  | Maximum stacksize for task 102: unlimited
  | Maximum stacksize for task 103: unlimited
  | Maximum stacksize for task 104: unlimited
  | Maximum stacksize for task 105: unlimited
  | Maximum stacksize for task 106: unlimited
  | Maximum stacksize for task 107: unlimited
  | Maximum stacksize for task 108: unlimited
  | Maximum stacksize for task 109: unlimited
  | Maximum stacksize for task 110: unlimited
  | Maximum stacksize for task 111: unlimited
  | Maximum stacksize for task 112: unlimited
  | Maximum stacksize for task 113: unlimited
  | Maximum stacksize for task 114: unlimited
  | Maximum stacksize for task 115: unlimited
  | Maximum stacksize for task 116: unlimited
  | Maximum stacksize for task 117: unlimited
  | Maximum stacksize for task 118: unlimited
  | Maximum stacksize for task 119: unlimited
  | Maximum stacksize for task 120: unlimited
  | Maximum stacksize for task 121: unlimited
  | Maximum stacksize for task 122: unlimited
  | Maximum stacksize for task 123: unlimited
  | Maximum stacksize for task 124: unlimited
  | Maximum stacksize for task 125: unlimited
  | Maximum stacksize for task 126: unlimited
  | Maximum stacksize for task 127: unlimited
  | Current stacksize for task 0: unlimited
  | Current stacksize for task 1: unlimited
  | Current stacksize for task 2: unlimited
  | Current stacksize for task 3: unlimited
  | Current stacksize for task 4: unlimited
  | Current stacksize for task 5: unlimited
  | Current stacksize for task 6: unlimited
  | Current stacksize for task 7: unlimited
  | Current stacksize for task 8: unlimited
  | Current stacksize for task 9: unlimited
  | Current stacksize for task 10: unlimited
  | Current stacksize for task 11: unlimited
  | Current stacksize for task 12: unlimited
  | Current stacksize for task 13: unlimited
  | Current stacksize for task 14: unlimited
  | Current stacksize for task 15: unlimited
  | Current stacksize for task 16: unlimited
  | Current stacksize for task 17: unlimited
  | Current stacksize for task 18: unlimited
  | Current stacksize for task 19: unlimited
  | Current stacksize for task 20: unlimited
  | Current stacksize for task 21: unlimited
  | Current stacksize for task 22: unlimited
  | Current stacksize for task 23: unlimited
  | Current stacksize for task 24: unlimited
  | Current stacksize for task 25: unlimited
  | Current stacksize for task 26: unlimited
  | Current stacksize for task 27: unlimited
  | Current stacksize for task 28: unlimited
  | Current stacksize for task 29: unlimited
  | Current stacksize for task 30: unlimited
  | Current stacksize for task 31: unlimited
  | Current stacksize for task 32: unlimited
  | Current stacksize for task 33: unlimited
  | Current stacksize for task 34: unlimited
  | Current stacksize for task 35: unlimited
  | Current stacksize for task 36: unlimited
  | Current stacksize for task 37: unlimited
  | Current stacksize for task 38: unlimited
  | Current stacksize for task 39: unlimited
  | Current stacksize for task 40: unlimited
  | Current stacksize for task 41: unlimited
  | Current stacksize for task 42: unlimited
  | Current stacksize for task 43: unlimited
  | Current stacksize for task 44: unlimited
  | Current stacksize for task 45: unlimited
  | Current stacksize for task 46: unlimited
  | Current stacksize for task 47: unlimited
  | Current stacksize for task 48: unlimited
  | Current stacksize for task 49: unlimited
  | Current stacksize for task 50: unlimited
  | Current stacksize for task 51: unlimited
  | Current stacksize for task 52: unlimited
  | Current stacksize for task 53: unlimited
  | Current stacksize for task 54: unlimited
  | Current stacksize for task 55: unlimited
  | Current stacksize for task 56: unlimited
  | Current stacksize for task 57: unlimited
  | Current stacksize for task 58: unlimited
  | Current stacksize for task 59: unlimited
  | Current stacksize for task 60: unlimited
  | Current stacksize for task 61: unlimited
  | Current stacksize for task 62: unlimited
  | Current stacksize for task 63: unlimited
  | Current stacksize for task 64: unlimited
  | Current stacksize for task 65: unlimited
  | Current stacksize for task 66: unlimited
  | Current stacksize for task 67: unlimited
  | Current stacksize for task 68: unlimited
  | Current stacksize for task 69: unlimited
  | Current stacksize for task 70: unlimited
  | Current stacksize for task 71: unlimited
  | Current stacksize for task 72: unlimited
  | Current stacksize for task 73: unlimited
  | Current stacksize for task 74: unlimited
  | Current stacksize for task 75: unlimited
  | Current stacksize for task 76: unlimited
  | Current stacksize for task 77: unlimited
  | Current stacksize for task 78: unlimited
  | Current stacksize for task 79: unlimited
  | Current stacksize for task 80: unlimited
  | Current stacksize for task 81: unlimited
  | Current stacksize for task 82: unlimited
  | Current stacksize for task 83: unlimited
  | Current stacksize for task 84: unlimited
  | Current stacksize for task 85: unlimited
  | Current stacksize for task 86: unlimited
  | Current stacksize for task 87: unlimited
  | Current stacksize for task 88: unlimited
  | Current stacksize for task 89: unlimited
  | Current stacksize for task 90: unlimited
  | Current stacksize for task 91: unlimited
  | Current stacksize for task 92: unlimited
  | Current stacksize for task 93: unlimited
  | Current stacksize for task 94: unlimited
  | Current stacksize for task 95: unlimited
  | Current stacksize for task 96: unlimited
  | Current stacksize for task 97: unlimited
  | Current stacksize for task 98: unlimited
  | Current stacksize for task 99: unlimited
  | Current stacksize for task 100: unlimited
  | Current stacksize for task 101: unlimited
  | Current stacksize for task 102: unlimited
  | Current stacksize for task 103: unlimited
  | Current stacksize for task 104: unlimited
  | Current stacksize for task 105: unlimited
  | Current stacksize for task 106: unlimited
  | Current stacksize for task 107: unlimited
  | Current stacksize for task 108: unlimited
  | Current stacksize for task 109: unlimited
  | Current stacksize for task 110: unlimited
  | Current stacksize for task 111: unlimited
  | Current stacksize for task 112: unlimited
  | Current stacksize for task 113: unlimited
  | Current stacksize for task 114: unlimited
  | Current stacksize for task 115: unlimited
  | Current stacksize for task 116: unlimited
  | Current stacksize for task 117: unlimited
  | Current stacksize for task 118: unlimited
  | Current stacksize for task 119: unlimited
  | Current stacksize for task 120: unlimited
  | Current stacksize for task 121: unlimited
  | Current stacksize for task 122: unlimited
  | Current stacksize for task 123: unlimited
  | Current stacksize for task 124: unlimited
  | Current stacksize for task 125: unlimited
  | Current stacksize for task 126: unlimited
  | Current stacksize for task 127: unlimited
 
  Consistency checks for the contents of control.in are next.
 
  MPI_IN_PLACE appears to work with this MPI implementation.
  | Keeping use_mpi_in_place .true. (see manual).
  Target number of points in a grid batch is not set. Defaulting to  100
  Method for grid partitioning is not set. Defaulting to parallel hash+maxmin partitioning.
  Batch size limit is not set. Defaulting to    200
  By default, will store active basis functions for each batch.
  If in need of memory, prune_basis_once .false. can be used to disable this option.
  communication_type for Hartree potential was not specified.
  Defaulting to calc_hartree .
  Defaulting to Pulay charge density mixer.
  Pulay mixer: Number of relevant iterations not set.
  Defaulting to    8 iterations.
  Pulay mixer: Number of initial linear mixing iterations not set.
  Defaulting to    0 iterations.
  Work space size for distributed Hartree potential not set.
  Defaulting to   0.200000E+03 MB.
  Mixing parameter for charge density mixing has not been set.
  Using default: charge_mix_param =     0.0500.
  The mixing parameter will be adjusted in iteration number     2 of each s.c.f. cycle (i.e., each geometry step).
  Algorithm-dependent basis array size parameters:
  | n_max_pulay                         :        8
  Maximum number of self-consistency iterations not provided.
  Presetting  1000 iterations.
  Presetting      1001 iterations before the initial mixing cycle
  is restarted anyway using the sc_init_iter criterion / keyword.
  Presetting a factor      1.000 between actual scf density residual
  and density convergence criterion sc_accuracy_rho below which sc_init_iter
  takes no effect.
 * No s.c.f. convergence criteria (sc_accuracy_*) were provided in control.in.
 * The run will proceed with a reasonable default guess, but please check whether.
 * the s.c.f. cycles seem to take too much or too little time.
  No maximum number of relaxation steps, defaulting to     1000
  Default initial Hessian is Lindh matrix (thres = 15.00) plus  0.200000E+01 eV/A^2 times unity.
  No maximum energy tolerance for TRM/BFGS moves, defaulting to   0.150000E-02
  Maximum energy tolerance by which TRM/BFGS trajectory may increase over multiple steps:   0.300000E-02
  No harmonic length scale. Defaulting to   0.250000E-01 A.
  No trust radius initializer. Defaulting to   0.200000E+00 A.
  Unit cell relaxation: Unit cell will be relaxed fully.
  Unit cell relaxation: Analytical stress will be used.
  Analytical stress will be computed.
  Analytical stress calculation: Only the upper triangle is calculated.
                                 Final output is symmetrized.
  Analytical stress calculation: scf convergence accuracy of stress not set.
                                 Analytical stress self-consistency will not be checked explicitly.
                                 Be sure to set other criteria like sc_accuracy_rho tight enough.
  Forces evaluation will include force correction term due to incomplete self-consistency (default).
 * Notice: The s.c.f. convergence criterion sc_accuracy_rho was not provided.
 * We used to stop in this case, and ask the user to provide reasonable
 * scf convergence criteria. However, this led some users to employ criteria
 * that led to extremely long run times, e.g., for simple relaxation.
 * We now preset a default value for sc_accuracy_rho if it is not set.
 * You may still wish to check if this setting is too tight or too loose for your needs.
 * Based on n_atoms and forces and force-correction status, FHI-aims chose sc_accuracy_rho =  0.100000E-05 .
  Force calculation: scf convergence accuracy of forces not set.
  Defaulting to 'sc_accuracy_forces not_checked'.
  Handling of forces: Unphysical translation and rotation will be removed from forces.
  No accuracy limit for integral partition fn. given. Defaulting to  0.1000E-14.
  No threshold value for u(r) in integrations given. Defaulting to  0.1000E-05.
  No occupation type (smearing scheme) given. Defaulting to Gaussian broadening, width =  0.1000E-01 eV.
  The width will be adjusted in iteration number     2 of each s.c.f. cycle (i.e., each geometry step).
  No accuracy for occupation numbers given. Defaulting to  0.1000E-12.
  No threshold value for occupation numbers given. Defaulting to  0.0000E+00.
  No accuracy for fermi level given. Defaulting to  0.1000E-19.
  Maximum # of iterations to find E_F not set. Defaulting to  200.
  Preferred method for the eigenvalue solver ('KS_method') not specified in 'control.in'.
  Defaulting to serial version, LAPACK (via ELSI), since more k-points than CPUs available.
  Will not use alltoall communication since running on < 1024 CPUs.
  Threshold for basis singularities not set.
  Default threshold for basis singularities:  0.1000E-04
  partition_type (choice of integration weights) for integrals was not specified.
  | Using a version of the partition function of Stratmann and coworkers ('stratmann_sparse').
  | At each grid point, the set of atoms used to build the partition table is smoothly restricted to
  | only those atoms whose free-atom density would be non-zero at that grid point.
  Partitioning for Hartree potential was not defined. Using partition_type for integrals.
  | Adjusted default value of keyword multip_moments_threshold to:       0.10000000E-11
  | This value may affect high angular momentum components of the Hartree potential in periodic systems.
  Spin handling was not defined in control.in. Defaulting to unpolarized case.
  No q(lm)/r^(l+1) cutoff set for long-range Hartree potential.
  | Using default value of  0.100000E-09 .
  | Verify using the multipole_threshold keyword.
  Defaulting to new monopole extrapolation.
  Density update method: automatic selection selected.
  Using density matrix based charge density update.
  Using density matrix based charge density update.
  Using packed matrix style: index .
  Geometry relaxation: A file "geometry.in.next_step" is written out by default after each step.
  | This file contains the geometry of the current relaxation step as well as
  | the current Hessian matrix needed to restart the relaxation algorithm.
  | If you do not want part or all of this information, use the keywords
  | "write_restart_geometry" or "hessian_to_restart_geometry" to switch the output off.
  Defaulting to use time-reversal symmetry for k-point grid.
  Charge integration errors on the 3D integration grid will be compensated
  by explicit normalization and distribution of residual charges.
  Use the "compensate_multipole_errors" flag to change this behaviour.
  Set 'collect_eigenvectors' to be '.true.' for all serial calculations. This is mandatory.
  Set 'collect_eigenvectors' to be '.true.' for KS_method lapack_fast and serial.
  Found potential conflicts with setting 'use_local_index' for this calculation. Will not set it.
 
  Consistency checks for the contents of geometry.in are next.
 

  Range separation radius for Ewald summation (hartree_convergence_parameter):      3.02465203 bohr.
  Number of empty states per atom not set in control.in - providing a guess from actual geometry.
  | Total number of empty states used during s.c.f. cycle:       23
  If you use a very high smearing, use empty_states (per atom!) in control.in to increase this value.

  Structure-dependent array size parameters: 
  | Maximum number of distinct radial functions  :       17
  | Maximum number of basis functions            :      118
  | Number of Kohn-Sham states (occupied + empty):       61
------------------------------------------------------------
  After read_input_data [GB]:   1042.74

  Performing system and environment tests:
  *** Environment variable OMP_NUM_THREADS is not set
  *** For performance reasons you might want to set it to 1
  | Checking for ScaLAPACK...
  | Testing pdtran()...
  | All pdtran() tests passed.
  After prepare_system [GB]:   1042.11

------------------------------------------------------------
          Preparing all fixed parts of the calculation.
------------------------------------------------------------
  Determining machine precision:
    2.225073858507201E-308
  Setting up grids for atomic and cluster calculations.

  Creating wave function, potential, and density for free atoms.
  Runtime choices for atomic solver:
  | atomic solver xc        : PW-LDA
  | compute density gradient: 1
  | compute kinetic density : T

  Species: Ti

  List of occupied orbitals and eigenvalues:
    n    l              occ      energy [Ha]    energy [eV]
    1    0           2.0000      -179.482435     -4883.9656
    2    0           2.0000       -19.674169      -535.3614
    3    0           2.0000        -2.270443       -61.7819
    4    0           2.0000        -0.153527        -4.1777
    2    1           6.0000       -16.307552      -443.7511
    3    1           6.0000        -1.407668       -38.3046
    3    2           2.0000        -0.147710        -4.0194


  Species: O

  List of occupied orbitals and eigenvalues:
    n    l              occ      energy [Ha]    energy [eV]
    1    0           2.0000       -18.786109      -511.1960
    2    0           2.0000        -0.872635       -23.7456
    2    1           4.0000        -0.337687        -9.1889


  Adding cutoff potential to free-atom effective potential.
  Creating fixed part of basis set: Ionic, confined, hydrogenic.
 
  Ti                   ion:

  List of free ionic orbitals and eigenvalues:
    n    l      energy [Ha]    energy [eV]
    1    0      -180.346512     -4907.4783
    2    0       -20.558929      -559.4369
    3    0        -3.105104       -84.4942
    4    0        -0.707661       -19.2564
    2    1       -17.189957      -467.7625
    3    1        -2.231709       -60.7279
    3    2        -0.922254       -25.0958


  List of ionic basis orbitals and eigenvalues:
    n    l      energy [Ha]    energy [eV]    outer radius [A]
    4    1        -0.526225       -14.3193       4.592117
    4    0        -0.707344       -19.2478       4.536321

 
  Ti                   hydrogenic:
 
  List of hydrogenic basis orbitals: 
    n    l      effective z      eigenvalue [eV]  inner max. [A]     outer max. [A]     outer radius [A]   
    4    3         8.000000       -54.4222           1.059019           1.059019           4.267343
    3    2         2.700000       -10.7798           1.726925           1.726925           4.592117
 
 
  O                    hydrogenic:
 
  List of hydrogenic basis orbitals: 
    n    l      effective z      eigenvalue [eV]  inner max. [A]     outer max. [A]     outer radius [A]   
    2    1         1.800000       -10.9749           1.164242           1.164242           4.578029
    3    2         7.600000       -87.3180           0.624125           0.624125           3.251020
    3    0         6.400000       -61.9207           0.061167           1.081902           4.001998
 
  Creating atomic-like basis functions for current effective potential.

  Species Ti                  :

  List of atomic basis orbitals and eigenvalues:
    n    l      energy [Ha]    energy [eV]    outer radius [A]
    1    0      -179.482435     -4883.9656       0.490254
    2    0       -19.674169      -535.3614       1.491292
    3    0        -2.270443       -61.7819       4.014314
    4    0        -0.153527        -4.1777       4.592117
    2    1       -16.307552      -443.7511       1.585290
    3    1        -1.407668       -38.3046       4.267343
    3    2        -0.147710        -4.0194       4.536321


  Species O                   :

  List of atomic basis orbitals and eigenvalues:
    n    l      energy [Ha]    energy [eV]    outer radius [A]
    1    0       -18.786109      -511.1960       1.433179
    2    0        -0.872635       -23.7456       4.413171
    2    1        -0.337687        -9.1889       4.522403

  Assembling full basis from fixed parts.
  | Species Ti :   atomic orbital   1 s accepted.
  | Species Ti :   atomic orbital   2 s accepted.
  | Species Ti :   atomic orbital   3 s accepted.
  | Species Ti :    ionic orbital   4 s accepted.
  | Species Ti :   atomic orbital   4 s accepted.
  | Species Ti :   atomic orbital   2 p accepted.
  | Species Ti :   atomic orbital   3 p accepted.
  | Species Ti :    ionic orbital   4 p accepted.
  | Species Ti :   atomic orbital   3 d accepted.
  | Species Ti :    hydro orbital   3 d accepted.
  | Species Ti :    hydro orbital   4 f accepted.
  | Species O :   atomic orbital   1 s accepted.
  | Species O :    hydro orbital   3 s accepted.
  | Species O :   atomic orbital   2 s accepted.
  | Species O :   atomic orbital   2 p accepted.
  | Species O :    hydro orbital   2 p accepted.
  | Species O :    hydro orbital   3 d accepted.
 
  Basis size parameters after reduction:
  | Total number of radial functions:       17
  | Total number of basis functions :      118
 
  Per-task memory consumption for arrays in subroutine allocate_ext:
  |           6.022728MB.
  Testing on-site integration grid accuracy.
  |  Species  Function  <phi|h_atom|phi> (log., in eV)  <phi|h_atom|phi> (rad., in eV)
           1        1              -4883.9655584838              -4883.9621038685
           1        2               -535.3613797651               -535.3613465329
           1        3                -61.7819051437                -61.7819042958
           1        4                 -3.4094615438                 -3.4129466190
           1        5                  6.4168551963                  6.1708882226 ***
           1        6               -443.7510567204               -443.7510565108
           1        7                -38.3045974414                -38.3045972667
           1        8                  0.2435515971                  0.2278546356
           1        9                 -4.0209566986                 -4.0233253492
           1       10                  6.1945918217                  6.1160653784 ***
           1       11                 27.5350749887                 27.5351945928
           2       12               -511.1960429777               -511.1959399133
           2       13                 14.8973166466                 14.8974402823
           2       14                -21.2682165807                -21.2682317485
           2       15                 -9.1890598667                 -9.1892026751
           2       16                  8.1915160719                  8.1720639763
           2       17                 45.8005976646                 45.8005620229
 * Note: Onsite integrals marked "***" above are less accurate than
 * onsite_accuracy_threshold =    0.03000 eV. Usually, this is harmless.
 * When in doubt, tighten the "radial" and/or "radial_multiplier" flags to check.

  Preparing densities etc. for the partition functions (integrals / Hartree potential).

  Preparations completed.
  max(cpu_time)          :      0.305 s.
  Wall clock time (cpu1) :      0.301 s.
------------------------------------------------------------
  After prepare_scf [GB]:   1039.97

  Initializing index lists of integration centers etc. from given atomic structure:
  Mapping all atomic coordinates to central unit cell.

  Initializing the k-points
  Using symmetry for reducing the k-points
  | k-points reduced from:      216 to      112
  | Number of k-points                             :       112
  The eigenvectors in the calculations are COMPLEX.
  | K-points in task   0:         0
  | K-points in task   1:         1
  | K-points in task   2:         1
  | K-points in task   3:         1
  | K-points in task   4:         1
  | K-points in task   5:         1
  | K-points in task   6:         1
  | K-points in task   7:         1
  | K-points in task   8:         1
  | K-points in task   9:         1
  | K-points in task  10:         1
  | K-points in task  11:         1
  | K-points in task  12:         1
  | K-points in task  13:         1
  | K-points in task  14:         1
  | K-points in task  15:         1
  | K-points in task  16:         1
  | K-points in task  17:         1
  | K-points in task  18:         1
  | K-points in task  19:         1
  | K-points in task  20:         1
  | K-points in task  21:         1
  | K-points in task  22:         1
  | K-points in task  23:         1
  | K-points in task  24:         1
  | K-points in task  25:         1
  | K-points in task  26:         1
  | K-points in task  27:         1
  | K-points in task  28:         1
  | K-points in task  29:         1
  | K-points in task  30:         1
  | K-points in task  31:         1
  | K-points in task  32:         1
  | K-points in task  33:         1
  | K-points in task  34:         1
  | K-points in task  35:         1
  | K-points in task  36:         1
  | K-points in task  37:         1
  | K-points in task  38:         1
  | K-points in task  39:         1
  | K-points in task  40:         1
  | K-points in task  41:         1
  | K-points in task  42:         1
  | K-points in task  43:         1
  | K-points in task  44:         1
  | K-points in task  45:         1
  | K-points in task  46:         1
  | K-points in task  47:         1
  | K-points in task  48:         1
  | K-points in task  49:         1
  | K-points in task  50:         1
  | K-points in task  51:         1
  | K-points in task  52:         1
  | K-points in task  53:         1
  | K-points in task  54:         1
  | K-points in task  55:         1
  | K-points in task  56:         1
  | K-points in task  57:         1
  | K-points in task  58:         1
  | K-points in task  59:         1
  | K-points in task  60:         1
  | K-points in task  61:         1
  | K-points in task  62:         1
  | K-points in task  63:         1
  | K-points in task  64:         1
  | K-points in task  65:         1
  | K-points in task  66:         1
  | K-points in task  67:         1
  | K-points in task  68:         1
  | K-points in task  69:         1
  | K-points in task  70:         1
  | K-points in task  71:         1
  | K-points in task  72:         1
  | K-points in task  73:         1
  | K-points in task  74:         1
  | K-points in task  75:         1
  | K-points in task  76:         1
  | K-points in task  77:         1
  | K-points in task  78:         1
  | K-points in task  79:         1
  | K-points in task  80:         1
  | K-points in task  81:         1
  | K-points in task  82:         1
  | K-points in task  83:         1
  | K-points in task  84:         1
  | K-points in task  85:         1
  | K-points in task  86:         1
  | K-points in task  87:         1
  | K-points in task  88:         1
  | K-points in task  89:         1
  | K-points in task  90:         1
  | K-points in task  91:         1
  | K-points in task  92:         1
  | K-points in task  93:         1
  | K-points in task  94:         1
  | K-points in task  95:         1
  | K-points in task  96:         1
  | K-points in task  97:         1
  | K-points in task  98:         1
  | K-points in task  99:         1
  | K-points in task 100:         1
  | K-points in task 101:         1
  | K-points in task 102:         1
  | K-points in task 103:         1
  | K-points in task 104:         1
  | K-points in task 105:         1
  | K-points in task 106:         1
  | K-points in task 107:         1
  | K-points in task 108:         1
  | K-points in task 109:         1
  | K-points in task 110:         1
  | K-points in task 111:         1
  | K-points in task 112:         1
  | K-points in task 113:         0
  | K-points in task 114:         0
  | K-points in task 115:         0
  | K-points in task 116:         0
  | K-points in task 117:         0
  | K-points in task 118:         0
  | K-points in task 119:         0
  | K-points in task 120:         0
  | K-points in task 121:         0
  | K-points in task 122:         0
  | K-points in task 123:         0
  | K-points in task 124:         0
  | K-points in task 125:         0
  | K-points in task 126:         0
  | K-points in task 127:         0
  | Number of basis functions in the Hamiltonian integrals :      2803
  | Number of basis functions in a single unit cell        :       118
  | Number of centers in hartree potential         :      1194
  | Number of centers in hartree multipole         :       795
  | Number of centers in electron density summation:       568
  | Number of centers in basis integrals           :       613
  | Number of centers in integrals                 :       197
  | Number of centers in hamiltonian               :       582
  | Consuming        248 KiB for k_phase.
  | Number of super-cells (origin) [n_cells]                     :         891
  | Number of super-cells (after PM_index) [n_cells]             :         142
  | Number of super-cells in hamiltonian [n_cells_in_hamiltonian]:         142
  | Size of matrix packed + index [n_hamiltonian_matrix_size] :      272239
  After initialize_bc_dependent_lists [GB]:   1039.66

------------------------------------------------------------
          Begin self-consistency loop: Initialization.

          Date     :  20240819, Time     :  011209.498
------------------------------------------------------------

  Initializing relaxation algorithms.
  Finished initialization of distributed Hessian storage.
  | Global dimension:        27
  | BLACS block size:         1
  | Number of workers:       27

  Available memory per node after initialize_hartree_non_periodic_ewald [GB]:   1039.66
  | Estimated reciprocal-space cutoff momentum G_max:         3.12346377 bohr^-1 .
  | Reciprocal lattice points for long-range Hartree potential:     208
  Available memory per node after initialize_recip_hartree_potential [GB]:   1039.66
  Available memory per node after initialize_scalapack [GB]:   1039.66
  Available memory per node after aims_elsi_init_scf [GB]:   1039.66
  Available memory per node after initialize_fixed_grids [GB]:   1039.66
  Partitioning the integration grid into batches with parallel hashing+maxmin method.
  | Number of batches:      489
  | Maximal batch size:     122
  | Minimal batch size:      50
  | Average batch size:      78.380
  | Standard deviation of batch sizes:      16.647

  Integration load balanced across   128 MPI tasks.
  Work distribution over tasks is as follows:
  Task     0 has        290 integration points.
  Task     1 has        333 integration points.
  Task     2 has        294 integration points.
  Task     3 has        327 integration points.
  Task     4 has        276 integration points.
  Task     5 has        290 integration points.
  Task     6 has        271 integration points.
  Task     7 has        265 integration points.
  Task     8 has        308 integration points.
  Task     9 has        296 integration points.
  Task    10 has        339 integration points.
  Task    11 has        292 integration points.
  Task    12 has        291 integration points.
  Task    13 has        318 integration points.
  Task    14 has        293 integration points.
  Task    15 has        265 integration points.
  Task    16 has        365 integration points.
  Task    17 has        260 integration points.
  Task    18 has        270 integration points.
  Task    19 has        266 integration points.
  Task    20 has        320 integration points.
  Task    21 has        268 integration points.
  Task    22 has        264 integration points.
  Task    23 has        269 integration points.
  Task    24 has        282 integration points.
  Task    25 has        331 integration points.
  Task    26 has        274 integration points.
  Task    27 has        271 integration points.
  Task    28 has        284 integration points.
  Task    29 has        262 integration points.
  Task    30 has        267 integration points.
  Task    31 has        326 integration points.
  Task    32 has        337 integration points.
  Task    33 has        330 integration points.
  Task    34 has        261 integration points.
  Task    35 has        323 integration points.
  Task    36 has        261 integration points.
  Task    37 has        293 integration points.
  Task    38 has        273 integration points.
  Task    39 has        305 integration points.
  Task    40 has        362 integration points.
  Task    41 has        267 integration points.
  Task    42 has        338 integration points.
  Task    43 has        316 integration points.
  Task    44 has        356 integration points.
  Task    45 has        318 integration points.
  Task    46 has        283 integration points.
  Task    47 has        334 integration points.
  Task    48 has        287 integration points.
  Task    49 has        265 integration points.
  Task    50 has        268 integration points.
  Task    51 has        332 integration points.
  Task    52 has        311 integration points.
  Task    53 has        329 integration points.
  Task    54 has        262 integration points.
  Task    55 has        262 integration points.
  Task    56 has        291 integration points.
  Task    57 has        309 integration points.
  Task    58 has        316 integration points.
  Task    59 has        323 integration points.
  Task    60 has        264 integration points.
  Task    61 has        268 integration points.
  Task    62 has        274 integration points.
  Task    63 has        321 integration points.
  Task    64 has        290 integration points.
  Task    65 has        297 integration points.
  Task    66 has        295 integration points.
  Task    67 has        326 integration points.
  Task    68 has        335 integration points.
  Task    69 has        271 integration points.
  Task    70 has        334 integration points.
  Task    71 has        292 integration points.
  Task    72 has        354 integration points.
  Task    73 has        261 integration points.
  Task    74 has        267 integration points.
  Task    75 has        329 integration points.
  Task    76 has        323 integration points.
  Task    77 has        300 integration points.
  Task    78 has        292 integration points.
  Task    79 has        269 integration points.
  Task    80 has        315 integration points.
  Task    81 has        320 integration points.
  Task    82 has        324 integration points.
  Task    83 has        336 integration points.
  Task    84 has        323 integration points.
  Task    85 has        265 integration points.
  Task    86 has        269 integration points.
  Task    87 has        277 integration points.
  Task    88 has        326 integration points.
  Task    89 has        291 integration points.
  Task    90 has        287 integration points.
  Task    91 has        286 integration points.
  Task    92 has        353 integration points.
  Task    93 has        259 integration points.
  Task    94 has        321 integration points.
  Task    95 has        291 integration points.
  Task    96 has        274 integration points.
  Task    97 has        321 integration points.
  Task    98 has        266 integration points.
  Task    99 has        307 integration points.
  Task   100 has        324 integration points.
  Task   101 has        285 integration points.
  Task   102 has        329 integration points.
  Task   103 has        318 integration points.
  Task   104 has        289 integration points.
  Task   105 has        306 integration points.
  Task   106 has        310 integration points.
  Task   107 has        303 integration points.
  Task   108 has        261 integration points.
  Task   109 has        328 integration points.
  Task   110 has        296 integration points.
  Task   111 has        319 integration points.
  Task   112 has        271 integration points.
  Task   113 has        318 integration points.
  Task   114 has        318 integration points.
  Task   115 has        316 integration points.
  Task   116 has        335 integration points.
  Task   117 has        307 integration points.
  Task   118 has        305 integration points.
  Task   119 has        333 integration points.
  Task   120 has        265 integration points.
  Task   121 has        291 integration points.
  Task   122 has        312 integration points.
  Task   123 has        306 integration points.
  Task   124 has        265 integration points.
  Task   125 has        317 integration points.
  Task   126 has        272 integration points.
  Task   127 has        317 integration points.
  Available memory per node after partition_grid [GB]:   1039.66
  Initializing partition tables, free-atom densities, potentials, etc. across the integration grid (initialize_grid_storage).
  | initialize_grid_storage: Actual outermost partition radius vs. multipole_radius_free
  | (-- VB: in principle, multipole_radius_free should be larger, hence this output)
  | Species        1: Confinement radius =              4.999999999999999 AA, multipole_radius_free =              5.002391649902235 AA.
  | Species        1: outer_partition_radius set to              5.002391649902235 AA .
  | Species        2: Confinement radius =              4.999999999999999 AA, multipole_radius_free =              5.048384829883283 AA.
  | Species        2: outer_partition_radius set to              5.048384829883283 AA .
  | The sparse table of interatomic distances needs       1595.53 kbyte instead of      3006.15 kbyte of memory.
  | Net number of integration points:    38328
  | of which are non-zero points    :    31144
  | Numerical average free-atom electrostatic potential    :    -18.12212557 eV
  Available memory per node after initialize_grid_storage_p1 [GB]:   1039.50
  Renormalizing the initial density to the exact electron count on the 3D integration grid.
  | Initial density: Formal number of electrons (from input files) :      76.0000000000
  | Integrated number of electrons on 3D grid     :      75.9997141441
  | Charge integration error                      :      -0.0002858559
  | Normalization factor for density and gradient :       1.0000037613
  Renormalizing the free-atom superposition density to the exact electron count on the 3D integration grid.
  | Formal number of electrons (from input files) :      76.0000000000
  | Integrated number of electrons on 3D grid     :      75.9997141441
  | Charge integration error                      :      -0.0002858559
  | Normalization factor for density and gradient :       1.0000037613
  Obtaining max. number of non-zero basis functions in each batch (get_n_compute_maxes).
  | Maximal number of non-zero basis functions:      733 in task     0
  | Maximal number of non-zero basis functions:      759 in task     1
  | Maximal number of non-zero basis functions:      836 in task     2
  | Maximal number of non-zero basis functions:      813 in task     3
  | Maximal number of non-zero basis functions:      765 in task     4
  | Maximal number of non-zero basis functions:      812 in task     5
  | Maximal number of non-zero basis functions:      807 in task     6
  | Maximal number of non-zero basis functions:      829 in task     7
  | Maximal number of non-zero basis functions:      775 in task     8
  | Maximal number of non-zero basis functions:      812 in task     9
  | Maximal number of non-zero basis functions:      793 in task    10
  | Maximal number of non-zero basis functions:      780 in task    11
  | Maximal number of non-zero basis functions:      774 in task    12
  | Maximal number of non-zero basis functions:      751 in task    13
  | Maximal number of non-zero basis functions:      764 in task    14
  | Maximal number of non-zero basis functions:      784 in task    15
  | Maximal number of non-zero basis functions:      813 in task    16
  | Maximal number of non-zero basis functions:      790 in task    17
  | Maximal number of non-zero basis functions:      823 in task    18
  | Maximal number of non-zero basis functions:      814 in task    19
  | Maximal number of non-zero basis functions:      783 in task    20
  | Maximal number of non-zero basis functions:      863 in task    21
  | Maximal number of non-zero basis functions:      781 in task    22
  | Maximal number of non-zero basis functions:      794 in task    23
  | Maximal number of non-zero basis functions:      805 in task    24
  | Maximal number of non-zero basis functions:      786 in task    25
  | Maximal number of non-zero basis functions:      879 in task    26
  | Maximal number of non-zero basis functions:      808 in task    27
  | Maximal number of non-zero basis functions:      809 in task    28
  | Maximal number of non-zero basis functions:      753 in task    29
  | Maximal number of non-zero basis functions:      775 in task    30
  | Maximal number of non-zero basis functions:      796 in task    31
  | Maximal number of non-zero basis functions:      762 in task    32
  | Maximal number of non-zero basis functions:      751 in task    33
  | Maximal number of non-zero basis functions:      761 in task    34
  | Maximal number of non-zero basis functions:      783 in task    35
  | Maximal number of non-zero basis functions:      865 in task    36
  | Maximal number of non-zero basis functions:      783 in task    37
  | Maximal number of non-zero basis functions:      818 in task    38
  | Maximal number of non-zero basis functions:      804 in task    39
  | Maximal number of non-zero basis functions:      833 in task    40
  | Maximal number of non-zero basis functions:      829 in task    41
  | Maximal number of non-zero basis functions:      760 in task    42
  | Maximal number of non-zero basis functions:      920 in task    43
  | Maximal number of non-zero basis functions:      778 in task    44
  | Maximal number of non-zero basis functions:      746 in task    45
  | Maximal number of non-zero basis functions:      754 in task    46
  | Maximal number of non-zero basis functions:      726 in task    47
  | Maximal number of non-zero basis functions:      889 in task    48
  | Maximal number of non-zero basis functions:      796 in task    49
  | Maximal number of non-zero basis functions:      835 in task    50
  | Maximal number of non-zero basis functions:      854 in task    51
  | Maximal number of non-zero basis functions:      913 in task    52
  | Maximal number of non-zero basis functions:      731 in task    53
  | Maximal number of non-zero basis functions:      788 in task    54
  | Maximal number of non-zero basis functions:      806 in task    55
  | Maximal number of non-zero basis functions:      763 in task    56
  | Maximal number of non-zero basis functions:      904 in task    57
  | Maximal number of non-zero basis functions:      873 in task    58
  | Maximal number of non-zero basis functions:      840 in task    59
  | Maximal number of non-zero basis functions:      861 in task    60
  | Maximal number of non-zero basis functions:      788 in task    61
  | Maximal number of non-zero basis functions:      754 in task    62
  | Maximal number of non-zero basis functions:      786 in task    63
  | Maximal number of non-zero basis functions:      764 in task    64
  | Maximal number of non-zero basis functions:      776 in task    65
  | Maximal number of non-zero basis functions:      751 in task    66
  | Maximal number of non-zero basis functions:      801 in task    67
  | Maximal number of non-zero basis functions:      783 in task    68
  | Maximal number of non-zero basis functions:      830 in task    69
  | Maximal number of non-zero basis functions:      839 in task    70
  | Maximal number of non-zero basis functions:      833 in task    71
  | Maximal number of non-zero basis functions:      778 in task    72
  | Maximal number of non-zero basis functions:      760 in task    73
  | Maximal number of non-zero basis functions:      783 in task    74
  | Maximal number of non-zero basis functions:      775 in task    75
  | Maximal number of non-zero basis functions:      831 in task    76
  | Maximal number of non-zero basis functions:      740 in task    77
  | Maximal number of non-zero basis functions:      733 in task    78
  | Maximal number of non-zero basis functions:      804 in task    79
  | Maximal number of non-zero basis functions:      754 in task    80
  | Maximal number of non-zero basis functions:      811 in task    81
  | Maximal number of non-zero basis functions:      838 in task    82
  | Maximal number of non-zero basis functions:      780 in task    83
  | Maximal number of non-zero basis functions:      738 in task    84
  | Maximal number of non-zero basis functions:      751 in task    85
  | Maximal number of non-zero basis functions:      797 in task    86
  | Maximal number of non-zero basis functions:      765 in task    87
  | Maximal number of non-zero basis functions:      807 in task    88
  | Maximal number of non-zero basis functions:      742 in task    89
  | Maximal number of non-zero basis functions:      780 in task    90
  | Maximal number of non-zero basis functions:      787 in task    91
  | Maximal number of non-zero basis functions:      809 in task    92
  | Maximal number of non-zero basis functions:      776 in task    93
  | Maximal number of non-zero basis functions:      821 in task    94
  | Maximal number of non-zero basis functions:      755 in task    95
  | Maximal number of non-zero basis functions:      804 in task    96
  | Maximal number of non-zero basis functions:      738 in task    97
  | Maximal number of non-zero basis functions:      752 in task    98
  | Maximal number of non-zero basis functions:      787 in task    99
  | Maximal number of non-zero basis functions:      777 in task   100
  | Maximal number of non-zero basis functions:      792 in task   101
  | Maximal number of non-zero basis functions:      808 in task   102
  | Maximal number of non-zero basis functions:      821 in task   103
  | Maximal number of non-zero basis functions:      793 in task   104
  | Maximal number of non-zero basis functions:      748 in task   105
  | Maximal number of non-zero basis functions:      781 in task   106
  | Maximal number of non-zero basis functions:      754 in task   107
  | Maximal number of non-zero basis functions:      809 in task   108
  | Maximal number of non-zero basis functions:      832 in task   109
  | Maximal number of non-zero basis functions:      804 in task   110
  | Maximal number of non-zero basis functions:      813 in task   111
  | Maximal number of non-zero basis functions:      783 in task   112
  | Maximal number of non-zero basis functions:      753 in task   113
  | Maximal number of non-zero basis functions:      871 in task   114
  | Maximal number of non-zero basis functions:      921 in task   115
  | Maximal number of non-zero basis functions:      783 in task   116
  | Maximal number of non-zero basis functions:      865 in task   117
  | Maximal number of non-zero basis functions:      749 in task   118
  | Maximal number of non-zero basis functions:      782 in task   119
  | Maximal number of non-zero basis functions:      788 in task   120
  | Maximal number of non-zero basis functions:      836 in task   121
  | Maximal number of non-zero basis functions:      781 in task   122
  | Maximal number of non-zero basis functions:      884 in task   123
  | Maximal number of non-zero basis functions:      782 in task   124
  | Maximal number of non-zero basis functions:      808 in task   125
  | Maximal number of non-zero basis functions:      827 in task   126
  | Maximal number of non-zero basis functions:      765 in task   127
  Available memory per node after get_n_compute_maxes_p1 [GB]:   1039.42
  Allocating        0.000 MB for KS_eigenvector_complex
  Available memory per node after allocate_matrices [GB]:   1039.42
  Available memory per node after init_comm_sparse_local_matrix_scalapack [GB]:   1039.42
  Integrating Hamiltonian matrix: batch-based integration.
  Time summed over all CPUs for integration: real work        5.837 s, elapsed        6.876 s
  Available memory per node after integrate hamiltonian matrix [GB]:   1037.56
  Integrating overlap matrix.
  Time summed over all CPUs for integration: real work        2.965 s, elapsed        3.340 s
  Available memory per node after integrate ovlp matrix [GB]:   1037.07
  Available memory per node after ASI_callbacks invoke [GB]:   1037.07
  Available memory per node after save_overlap_scalapack [GB]:   1037.07

  Updating Kohn-Sham eigenvalues and eigenvectors using ELSI and the (modified) LAPACK eigensolver.

  Obtaining occupation numbers and electronic chemical potential using ELSI.
  | Note that, for insulating systems, the printed 'chemical potential' value is not uniquely defined.
  | It can be anywhere in the energy gap, as long as it correctly separates occupied and unoccupied states.
  | In systems with a gap, the physically relevant chemical potential is the VBM or HOMO.

  | Chemical potential (Fermi level):    -7.51014472 eV
  Available memory per node after advance_KS_solution [GB]:   1037.05
  Writing Kohn-Sham eigenvalues.
  K-point:       1 at    0.000000    0.000000    0.000000 (in units of recip. lattice)

  State    Occupation    Eigenvalue [Ha]    Eigenvalue [eV]
      1       2.00000        -179.543390        -4885.62422
      2       2.00000        -179.487977        -4884.11636
      3       2.00000         -19.741807         -537.20191
      4       2.00000         -19.680320         -535.52875
      5       2.00000         -19.051638         -518.42145
      6       2.00000         -19.051636         -518.42140
      7       2.00000         -18.898249         -514.24751
      8       2.00000         -18.898248         -514.24751
      9       2.00000         -16.379460         -445.70779
     10       2.00000         -16.371382         -445.48796
     11       2.00000         -16.371053         -445.47903
     12       2.00000         -16.313694         -443.91821
     13       2.00000         -16.313636         -443.91663
     14       2.00000         -16.313440         -443.91130
     15       2.00000          -2.464474          -67.06176
     16       2.00000          -2.286151          -62.20934
     17       2.00000          -1.858764          -50.57953
     18       2.00000          -1.532723          -41.70752
     19       2.00000          -1.528785          -41.60035
     20       2.00000          -1.437530          -39.11719
     21       2.00000          -1.423179          -38.72666
     22       2.00000          -1.419518          -38.62704
     23       2.00000          -1.144982          -31.15653
     24       2.00000          -1.063517          -28.93978
     25       2.00000          -1.007248          -27.40860
     26       2.00000          -0.916330          -24.93460
     27       2.00000          -0.722964          -19.67286
     28       2.00000          -0.691380          -18.81340
     29       2.00000          -0.682944          -18.58387
     30       2.00000          -0.592659          -16.12706
     31       2.00000          -0.553598          -15.06418
     32       2.00000          -0.553091          -15.05038
     33       2.00000          -0.543847          -14.79884
     34       2.00000          -0.476692          -12.97146
     35       2.00000          -0.476577          -12.96833
     36       2.00000          -0.468600          -12.75125
     37       2.00000          -0.464325          -12.63493
[...]

  State    Occupation    Eigenvalue [Ha]    Eigenvalue [eV]
      1       2.00000        -180.792955        -4919.62661
      2       2.00000        -180.792891        -4919.62488
      3       2.00000         -20.215094         -550.08069
      4       2.00000         -20.215016         -550.07857
      5       2.00000         -19.102001         -519.79188
      6       2.00000         -19.101989         -519.79156
      7       2.00000         -19.101981         -519.79135
      8       2.00000         -19.101973         -519.79113
      9       2.00000         -16.697812         -454.37060
     10       2.00000         -16.697755         -454.36903
     11       2.00000         -16.697575         -454.36413
     12       2.00000         -16.697519         -454.36260
     13       2.00000         -16.697355         -454.35815
     14       2.00000         -16.697298         -454.35660
     15       2.00000          -2.517742          -68.51125
     16       2.00000          -2.517114          -68.49415
     17       2.00000          -1.603957          -43.64588
     18       2.00000          -1.603946          -43.64559
     19       2.00000          -1.597698          -43.47558
     20       2.00000          -1.597692          -43.47541
     21       2.00000          -1.596153          -43.43352
     22       2.00000          -1.594885          -43.39904
     23       2.00000          -1.043546          -28.39634
     24       2.00000          -1.001686          -27.25727
     25       2.00000          -0.974448          -26.51608
     26       2.00000          -0.974433          -26.51566
     27       2.00000          -0.550552          -14.98127
     28       2.00000          -0.537088          -14.61490
     29       2.00000          -0.514794          -14.00825
     30       2.00000          -0.478121          -13.01034
     31       2.00000          -0.478112          -13.01008
     32       2.00000          -0.429796          -11.69536
     33       2.00000          -0.429776          -11.69479
     34       2.00000          -0.410996          -11.18376
     35       2.00000          -0.362224           -9.85663
     36       2.00000          -0.351468           -9.56393
     37       2.00000          -0.351466           -9.56389
     38       2.00000          -0.329703           -8.97166
     39       0.00000          -0.253322           -6.89323
     40       0.00000          -0.243162           -6.61678
     41       0.00000          -0.233874           -6.36404
     42       0.00000          -0.230272           -6.26601
     43       0.00000          -0.230249           -6.26539
     44       0.00000          -0.160484           -4.36699
     45       0.00000          -0.151747           -4.12925
     46       0.00000          -0.081817           -2.22635
     47       0.00000          -0.081756           -2.22471
     48       0.00000          -0.037441           -1.01883
     49       0.00000          -0.015901           -0.43268
     50       0.00000           0.146101            3.97560
     51       0.00000           0.146124            3.97623
     52       0.00000           0.263148            7.16063
     53       0.00000           0.289904            7.88870
     54       0.00000           0.351333            9.56026
     55       0.00000           0.395378           10.75877
     56       0.00000           0.449939           12.24345
     57       0.00000           0.450016           12.24555
     58       0.00000           0.505657           13.75964
     59       0.00000           0.660551           17.97451
     60       0.00000           0.687234           18.70060
     61       0.00000           0.768410           20.90951

  What follows are estimated values for band gap, HOMO, LUMO, etc.
  | They are estimated on a discrete k-point grid and not necessarily exact.
  | For converged numbers, create a DOS and/or band structure plot on a denser k-grid.

  Highest occupied state (VBM) at     -8.97166307 eV (relative to internal zero)
  | Occupation number:      2.00000000
  | K-point:       1 at    0.000000    0.000000    0.000000 (in units of recip. lattice)

  Lowest unoccupied state (CBM) at    -6.89323328 eV (relative to internal zero)
  | Occupation number:      0.00000000
  | K-point:       1 at    0.000000    0.000000    0.000000 (in units of recip. lattice)

  ESTIMATED overall HOMO-LUMO gap:      2.07842979 eV between HOMO at k-point 1 and LUMO at k-point 1
  | This appears to be a direct band gap.
  The gap value is above 0.2 eV. Unless you are using a very sparse k-point grid,
  this system is most likely an insulator or a semiconductor.

  | Chemical Potential                          :    -8.75040394 eV
  | Note that, for insulating systems, the printed 'chemical potential' value is not uniquely defined.
  | It can be anywhere in the energy gap, as long as it correctly separates occupied and unoccupied states.
  | In systems with a gap, the physically relevant chemical potential is the VBM or HOMO.

  Self-consistency cycle converged.


------------------------------------------------------------
  End self-consistency iteration #    18       :  max(cpu_time)    wall_clock(cpu1)
  | Time for this iteration                     :        2.034 s           2.034 s
  | Charge density & force component update     :        1.824 s           1.823 s
  | Density mixing                              :        0.000 s           0.000 s
  | Hartree multipole update                    :        0.001 s           0.001 s
  | Hartree multipole summation                 :        0.054 s           0.054 s
  | Hartree pot. SCF incomplete forces          :        0.044 s           0.044 s
  | Integration                                 :        0.100 s           0.101 s
  | Solution of K.-S. eqns.                     :        0.010 s           0.009 s
  | Total energy evaluation                     :        0.000 s           0.001 s

  Partial memory accounting:
  | Current value for overall tracked memory usage:
  |   Minimum:        5.424 MB (on task 117)
  |   Maximum:        5.718 MB (on task  19)
  |   Average:        5.644 MB
  | Peak value for overall tracked memory usage:
  |   Minimum:       24.568 MB (on task   0 after allocating d_wave)
  |   Maximum:       29.156 MB (on task  43 after allocating d_wave)
  |   Average:       26.658 MB
  | Largest tracked array allocation so far:
  |   Minimum:        4.762 MB (hamiltonian_shell on task   0)
  |   Maximum:        6.472 MB (hamiltonian_shell on task 115)
  |   Average:        5.505 MB
  Note:  These values currently only include a subset of arrays which are explicitly tracked.
  The "true" memory usage will be greater.
------------------------------------------------------------
  Removing unitary transformations (pure translations, rotations) from forces on atoms.
  Atomic forces before filtering:
  | Net force on center of mass :   0.625845E-05 -0.626185E-05  0.115400E-07 eV/A
  Atomic forces after filtering:
  | Net force on center of mass :  -0.696899E-18  0.000000E+00 -0.265846E-23 eV/A

  Energy and forces in a compact form:
  | Total energy uncorrected      :         -0.548222834190589E+05 eV
  | Total energy corrected        :         -0.548222834190589E+05 eV  <-- do not rely on this value for anything but (periodic) metals
  | Electronic free energy        :         -0.548222834190589E+05 eV
  Total atomic forces (unitary forces cleaned) [eV/Ang]:
  |    1          0.314545382927437E-04         -0.315467108931559E-04          0.430363041934627E-08
  |    2         -0.224582545983524E-04          0.225664536285715E-04         -0.500912179202682E-07
  |    3          0.708319095927431E-03          0.842244177974836E-03          0.140168236092477E-07
  |    4         -0.708641705322355E-03         -0.841919098620140E-03          0.133061121734511E-07
  |    5          0.315451905624138E-02         -0.302425584198050E-02          0.999832993046915E-08
  |    6         -0.316319273054084E-02          0.303291101989039E-02          0.846632178775402E-08

  ------------------------------------ 
  Start decomposition of the XC Energy 
  ------------------------------------ 
  X and C from original XC functional choice 
  Hartree-Fock Energy :          0.000000000 Ha              0.000000000 eV
  X Energy            :       -116.331128162 Ha          -3165.531057746 eV
  C Energy            :         -2.997400613 Ha            -81.563420574 eV
  XC Energy w/o HF    :       -119.328528775 Ha          -3247.094478320 eV
  Total XC Energy     :       -119.328528775 Ha          -3247.094478320 eV
  ------------------------------------ 
  LDA X and C from self-consistent density 
  X Energy LDA        :       -107.237967238 Ha          -2918.093559525 eV
  C Energy LDA        :         -5.872193318 Ha           -159.790510246 eV
  ------------------------------------ 
  End decomposition of the XC Energy 
  ------------------------------------ 

------------------------------------------------------------
  Relaxation / MD: End force evaluation.       :  max(cpu_time)    wall_clock(cpu1)
  | Time for this force evaluation              :        7.005 s           7.008 s

------------------------------------------------------------
  Geometry optimization: Attempting to predict improved coordinates.

  +-------------------------------------------------------------------+
  | Generalized derivatives on lattice vectors [eV/A]                 |
  +-------------------------------------------------------------------+
  |lattice_vector       0.00029307      -0.00044840      -0.00000000  |
  |lattice_vector      -0.00044839       0.00004772       0.00000000  |
  |lattice_vector      -0.00000000       0.00000000       0.00194390  |
  +-------------------------------------------------------------------+
  | Forces on lattice vectors cleaned from atomic contributions [eV/A]|
  +-------------------------------------------------------------------+
  |lattice_vector      -0.00029307       0.00044840       0.00000000  |
  |lattice_vector       0.00044839      -0.00004772      -0.00000000  |
  |lattice_vector       0.00000000      -0.00000000      -0.00194390  |
  +-------------------------------------------------------------------+
  Removing unitary transformations (pure translations, rotations) from forces on atoms.
  Atomic forces before filtering:
  | Net force on center of mass :  -0.696899E-18  0.000000E+00 -0.265846E-23 eV/A
  Atomic forces after filtering:
  | Net force on center of mass :   0.000000E+00  0.000000E+00 -0.265846E-23 eV/A
  Net remaining forces (excluding translations, rotations) in present geometry:
  || Forces on atoms   || =   0.316319E-02 eV/A.
  || Forces on lattice || =   0.194390E-02 eV/A^3.
  Maximum force component is  0.316319E-02 eV/A.
  Present geometry is converged.

------------------------------------------------------------
  Final atomic structure:
                         x [A]             y [A]             z [A]
  lattice_vector         4.59367493       -0.00002671       -0.00000000
  lattice_vector        -0.00002651        4.59374008        0.00000000
  lattice_vector        -0.00000000        0.00000000        2.96426943

            atom        -0.00000098        0.00000098       -0.00000000  Ti
            atom         2.29682445        2.29685644        1.48213471  Ti
            atom         1.39179739        1.39198368        0.00000000  O
            atom         3.20185131        3.20172940        0.00000000  O
            atom         0.90489483        3.68897331        1.48213472  O
            atom         3.68875404        0.90473960        1.48213472  O

  Fractional coordinates:
                         L1                L2                L3
       atom_frac        -0.00000021        0.00000021       -0.00000000  Ti
       atom_frac         0.50000005        0.49999995        0.50000000  Ti
       atom_frac         0.30298300        0.30301927        0.00000000  O
       atom_frac         0.69701706        0.69698067        0.00000000  O
       atom_frac         0.19699176        0.80304469        0.50000000  O
       atom_frac         0.80300834        0.19695521        0.50000000  O
------------------------------------------------------------

------------------------------------------------------------------------------
  Final output of selected total energy values:

  The following output summarizes some interesting total energy values
  at the end of a run (AFTER all relaxation, molecular dynamics, etc.).

  | Total energy of the DFT / Hartree-Fock s.c.f. calculation      :         -54822.283419059 eV
  | Final zero-broadening corrected energy (caution - metals only) :         -54822.283419059 eV
  | For reference only, the value of 1 Hartree used in FHI-aims is :             27.211384500 eV
  | For reference only, the overall average (free atom contribution
  | + realspace contribution) of the electrostatic potential after
  | s.c.f. convergence is                                          :            -17.364426079 eV

  Before relying on these values, please be sure to understand exactly which
  total energy value is referred to by a given number. Different objects may
  all carry the same name 'total energy'. Definitions:

  Total energy of the DFT / Hartree-Fock s.c.f. calculation:
  | Note that this energy does not include ANY quantities calculated after the
  | s.c.f. cycle, in particular not ANY RPA, MP2, etc. many-body perturbation terms.

  Final zero-broadening corrected energy:
  | For metallic systems only, a broadening of the occupation numbers at the Fermi
  | level can be extrapolated back to zero broadening by an electron-gas inspired
  | formula. For all systems that are not real metals, this value can be
  | meaningless and should be avoided.

------------------------------------------------------------------------------
  Methods described in the following list of references were used in this FHI-aims run.
  If you publish the results, please make sure to cite these reference if they apply.
  FHI-aims is an academic code, and for our developers (often, Ph.D. students
  and postdocs), scientific credit in the community is essential.
  Thank you for helping us!

  For any use of FHI-aims, please cite:

    Volker Blum, Ralf Gehrke, Felix Hanke, Paula Havu, Ville Havu,
    Xinguo Ren, Karsten Reuter, and Matthias Scheffler
    'Ab initio molecular simulations with numeric atom-centered orbitals'
    Computer Physics Communications 180, 2175-2196 (2009)
    http://doi.org/10.1016/j.cpc.2009.06.022


  For the analytical stress tensor used in your run, please cite:

    Franz Knuth, Christian Carbogno, Viktor Atalla, Volker Blum, Matthias Scheffler
    'All-electron formalism for total energy strain derivatives and
    stress tensor components for numeric atom-centered orbitals'
    Computer Physics Communications 190, 33-50 (2015).
    http://doi.org/10.1016/j.cpc.2015.01.003


  For the 'Strongly Constrained and Appropriately Normed' (SCAN)
  meta-GGA functional, please cite:

    Jianwei Sun and Adrienn Ruzsinszky and JohnP. Perdew,
    'Strongly Constrained and Appropriately Normed Semilocal Density Functional'
     Physical Review Letters 115, 036402 (2015).


  The provided symmetry information was generated with SPGlib:

    Atsushi Togo, Yusuke Seto, Dimitar Pashov
    SPGlib 1.7.3 obtained from http://spglib.sourceforge.net
    Licence: New BSD license
    Copyright (C) 2008 Atsushi Togo


  The ELSI infrastructure was used in your run to solve the Kohn-Sham electronic structure.
  Please check out https://wordpress.elsi-interchange.org to learn more.
  If scalability is important for your project, please acknowledge ELSI by citing:

    V. W-z. Yu, F. Corsetti, A. Garcia, W. P. Huhn, M. Jacquelin, W. Jia,
    B. Lange, L. Lin, J. Lu, W. Mi, A. Seifitokaldani, A. Vazquez-Mayagoitia,
    C. Yang, H. Yang, and V. Blum
    'ELSI: A unified software interface for Kohn-Sham electronic structure solvers'
    Computer Physics Communications 222, 267-285 (2018).
    http://doi.org/10.1016/j.cpc.2017.09.007


  For the real-space grid partitioning and parallelization used in this calculation, please cite:

    Ville Havu, Volker Blum, Paula Havu, and Matthias Scheffler,
    'Efficient O(N) integration for all-electron electronic structure calculation'
    'using numerically tabulated basis functions'
    Journal of Computational Physics 228, 8367-8379 (2009).
    http://doi.org/10.1016/j.jcp.2009.08.008

  Of course, there are many other important community references, e.g., those cited in the
  above references. Our list is limited to references that describe implementations in the
  FHI-aims code. The reason is purely practical (length of this list) - please credit others as well.

 * A warning was issued further up regarding the CPU load.
   Some CPUs do not participate in the eigenvalue solution.
   In corner cases, this may be the correct behavior. Otherwise,
   consider using a scalapack/elpa version of the code for a parallel treatment.

------------------------------------------------------------
          Leaving FHI-aims.
          Date     :  20240819, Time     :  011338.518

          Computational steps:
          | Number of self-consistency cycles          :          239
          | Number of SCF (re)initializations          :           13
          | Number of relaxation steps                 :           12

          Detailed time accounting                     :  max(cpu_time)    wall_clock(cpu1)
          | Total time                                  :       89.444 s          89.450 s
          | Preparation time                            :        0.305 s           0.301 s
          | Boundary condition initalization            :        0.520 s           0.475 s
          | Grid partitioning                           :        0.147 s           0.148 s
          | Preloading free-atom quantities on grid     :        0.424 s           0.423 s
          | Free-atom superposition energy              :        0.030 s           0.030 s
          | Total time for integrations                 :       22.911 s          22.915 s
          | Total time for solution of K.-S. equations  :        2.500 s           2.506 s
          | Total time for EV reorthonormalization      :        0.020 s           0.001 s
          | Total time for density & force components   :       55.769 s          55.765 s
          | Total time for mixing                       :        0.095 s           0.073 s
          | Total time for Hartree multipole update     :        0.253 s           0.255 s
          | Total time for Hartree multipole sum        :        4.584 s           4.586 s
          | Total time for total energy evaluation      :        0.075 s           0.084 s
          | Total time NSC force correction             :        1.157 s           1.158 s
          | Total time for scaled ZORA corrections      :        0.000 s           0.000 s

          Partial memory accounting:
          | Residual value for overall tracked memory usage across tasks:     0.000000 MB (should be 0.000000 MB)
          | Peak values for overall tracked memory usage:
          |   Minimum:       24.568 MB (on task   0 after allocating d_wave)
          |   Maximum:       29.156 MB (on task  43 after allocating d_wave)
          |   Average:       26.658 MB
          | Largest tracked array allocation:
          |   Minimum:        4.762 MB (hamiltonian_shell on task   0)
          |   Maximum:        6.472 MB (hamiltonian_shell on task 115)
          |   Average:        5.505 MB
          Note:  These values currently only include a subset of arrays which are explicitly tracked.
          The "true" memory usage will be greater.

          Have a nice day.
------------------------------------------------------------
