------------------------------------------------------------
          Invoking FHI-aims ...

          When using FHI-aims, please cite the following reference:

            Volker Blum, Ralf Gehrke, Felix Hanke, Paula Havu,
            Ville Havu, Xinguo Ren, Karsten Reuter, and Matthias Scheffler,
            'Ab Initio Molecular Simulations with Numeric Atom-Centered Orbitals',
            Computer Physics Communications 180, 2175-2196 (2009)

          In addition, many other developments in FHI-aims are likely important for
          your particular application. If so, please cite them. A partial list of references
          is written at the end of this file. Thank you for giving credit to the authors
          of these developments.

          For general information about FHI-aims please find us at

            https://fhi-aims.org

          Online tutorials can be found at

            https://fhi-aims-club.gitlab.io/tutorials/tutorials-overview/

          For any questions about FHI-aims, please visit our slack channel at

            https://fhi-aims.slack.com

          and our main development and support site at

            https://aims-git.rz-berlin.mpg.de .

          The latter site, in particular, has a wiki to collect information, as well
          as an issue tracker to log discussions, suggest improvements, and report issues
          or bugs. https://aims-git.rz-berlin.mpg.de is also the main development site
          of the project and all new and updated code versions can be obtained there.
          Please send an email to aims-coordinators@fhi-berlin.mpg.de and we will add
          you to these sites. They are for you and everyone is welcome there.

------------------------------------------------------------



  Date     :  20250120, Time     :  140621.893
  Time zero on CPU 1             :   0.443458000000000E+00  s.
  Internal wall clock time zero  :           506613981.893  s.

  FHI-aims created a unique identifier for this run for later identification
  aims_uuid : 84D9A6D4-A7E5-4E33-A40A-8DBD7B437C9F

  Build configuration of the current instance of FHI-aims
  -------------------------------------------------------
  FHI-aims version      : 240605
  Commit number         : b001b2e18
  CMake host system     : Linux-6.5.0-41-generic
  CMake version         : 3.22.1
  Fortran compiler      : /opt/intel/oneapi/mpi/2021.12/bin/mpiifort (IntelLLVM) version 2024.1.0
  Fortran compiler flags: -fc=ifx -O3 -ip -fp-model precise
  C compiler            : /opt/intel/oneapi/mpi/2021.12/bin/mpiicc (IntelLLVM) version 2024.1.0
  C compiler flags      : -cc=icx -O3 -ip -fp-model precise -std=gnu99
  C++ compiler          : /opt/intel/oneapi/mpi/2021.12/bin/mpiicpc (IntelLLVM) version 2024.1.0
  C++ compiler flags    : -cxx=icpx -O3 -ip -fp-model precise -std=c++11
  HIP compiler          :
  HIP compiler flags    :
  HIP GPU arch          :
  Using MPI
  Using ScaLAPACK
  Using LibXC
  Using i-PI
  Using RLSY
  Linking against: /opt/intel/oneapi/mkl/2024.1/lib/intel64/libmkl_intel_lp64.so
                   /opt/intel/oneapi/mkl/2024.1/lib/intel64/libmkl_sequential.so
                   /opt/intel/oneapi/mkl/2024.1/lib/intel64/libmkl_core.so
                   /opt/intel/oneapi/mkl/2024.1/lib/intel64/libmkl_blacs_intelmpi_lp64.so
                   /opt/intel/oneapi/mkl/2024.1/lib/intel64/libmkl_scalapack_lp64.so
                   /opt/intel/oneapi/mkl/2024.1/lib/intel64/libmkl_core.so

  Using       32 parallel tasks.
  Task        0 on host RSL-arvutus reporting.
  Task        1 on host RSL-arvutus reporting.
  Task        2 on host RSL-arvutus reporting.
  Task        3 on host RSL-arvutus reporting.
  Task        4 on host RSL-arvutus reporting.
  Task        5 on host RSL-arvutus reporting.
  Task        6 on host RSL-arvutus reporting.
  Task        7 on host RSL-arvutus reporting.
  Task        8 on host RSL-arvutus reporting.
  Task        9 on host RSL-arvutus reporting.
  Task       10 on host RSL-arvutus reporting.
  Task       11 on host RSL-arvutus reporting.
  Task       12 on host RSL-arvutus reporting.
  Task       13 on host RSL-arvutus reporting.
  Task       14 on host RSL-arvutus reporting.
  Task       15 on host RSL-arvutus reporting.
  Task       16 on host RSL-arvutus reporting.
  Task       17 on host RSL-arvutus reporting.
  Task       18 on host RSL-arvutus reporting.
  Task       19 on host RSL-arvutus reporting.
  Task       20 on host RSL-arvutus reporting.
  Task       21 on host RSL-arvutus reporting.
  Task       22 on host RSL-arvutus reporting.
  Task       23 on host RSL-arvutus reporting.
  Task       24 on host RSL-arvutus reporting.
  Task       25 on host RSL-arvutus reporting.
  Task       26 on host RSL-arvutus reporting.
  Task       27 on host RSL-arvutus reporting.
  Task       28 on host RSL-arvutus reporting.
  Task       29 on host RSL-arvutus reporting.
  Task       30 on host RSL-arvutus reporting.
  Task       31 on host RSL-arvutus reporting.

  Memory overcommitment is allowed on your operating system.

  Obtaining array dimensions for all initial allocations:
  
  -----------------------------------------------------------------------
  Parsing control.in (first pass over file, find array dimensions only).
  The contents of control.in will be repeated verbatim below
  unless switched off by setting 'verbatim_writeout .false.' .
  in the first line of control.in .
  -----------------------------------------------------------------------
  
    xc              pbe
    relativistic    zora scalar 1.0e-12
    k_grid          11 11 17
  
    output          Mulliken
  
  
  ################################################################################
  #
  #  FHI-aims code project
  #  VB, Fritz-Haber Institut, 2009
  #
  #  Suggested "light" defaults for Ti atom (to be pasted into control.in file)
  #  Be sure to double-check any results obtained with these settings for post-processing,
  #  e.g., with the "tight" defaults and larger basis sets.
  #
  ################################################################################
    species        Ti
  #     global species definitions
      nucleus             22
      mass                47.867
  #
      l_hartree           4
  #
      cut_pot             3.5          1.5  1.0
      basis_dep_cutoff    1e-4
  #
      radial_base         48 5.0
      radial_multiplier   1
      angular_grids       specified
        division   0.5171   50
        division   0.9824  110
        division   1.2917  194
        division   1.4940  302
  #      division   1.6934  434
  #      division   1.8425  590
  #      division   2.1901  770
  #      division   2.2896  974
  #      division   2.8244 1202
  #      outer_grid  974
        outer_grid  302
  ################################################################################
  #
  #  Definition of "minimal" basis
  #
  ################################################################################
  #     valence basis states
      valence      4  s   2.
      valence      3  p   6.
      valence      3  d   2.
  #     ion occupancy
      ion_occ      4  s   1.
      ion_occ      3  p   6.
      ion_occ      3  d   1.
  ################################################################################
  #
  #  Suggested additional basis functions. For production calculations,
  #  uncomment them one after another (the most important basis functions are
  #  listed first).
  #
  #  Constructed for dimers: 1.6 A, 1.85 A, 2.5 A, 3.25 A, 4.25 A
  #
  ################################################################################
  #  "First tier" - improvements: -396.25 meV to -19.41 meV
       hydro 4 f 8
       hydro 3 d 2.7
       ionic 4 p auto
  #     hydro 5 g 11.6
       ionic 4 s auto
  #  "Second tier" - improvements: -16.30 meV to -2.03 meV
  #     hydro 3 d 4.4
  #     hydro 6 h 16
  #     hydro 4 f 9.4
  #     hydro 4 p 4.5
  #     hydro 1 s 0.5
  #  "Third tier" - improvements: -6.28 meV to -0.37 meV
  #     hydro 4 d 6.4
  #     hydro 4 f 10
  #     hydro 5 g 12
  #     hydro 2 p 1.7
  #     hydro 6 h 16.4
  #     hydro 4 s 3.8
  #  Further basis functions: -0.45 meV and smaller improvements
  #     hydro 3 d 8.8
  #     hydro 5 p 18
  #     hydro 4 f 22.4
  #     hydro 5 f 7.2  # -0.16 meV
  #     hydro 3 d 2.1  # -0.11 meV
  #     hydro 5 g 7.4  # -0.09 meV
  
  
  ################################################################################
  #
  #  FHI-aims code project
  #  VB, Fritz-Haber Institut, 2009
  #
  #  Suggested "light" defaults for O atom (to be pasted into control.in file)
  #  Be sure to double-check any results obtained with these settings for post-processing,
  #  e.g., with the "tight" defaults and larger basis sets.
  #
  ################################################################################
    species        O
  #     global species definitions
      nucleus             8
      mass                15.9994
  #
      l_hartree           4
  #
      cut_pot             3.5  1.5  1.0
      basis_dep_cutoff    1e-4
  #
      radial_base         36 5.0
      radial_multiplier   1
       angular_grids specified
        division   0.2659   50
        division   0.4451  110
        division   0.6052  194
        division   0.7543  302
  #      division   0.8014  434
  #      division   0.8507  590
  #      division   0.8762  770
  #      division   0.9023  974
  #      division   1.2339 1202
  #      outer_grid 974
        outer_grid 302
  ################################################################################
  #
  #  Definition of "minimal" basis
  #
  ################################################################################
  #     valence basis states
      valence      2  s   2.
      valence      2  p   4.
  #     ion occupancy
      ion_occ      2  s   1.
      ion_occ      2  p   3.
  ################################################################################
  #
  #  Suggested additional basis functions. For production calculations,
  #  uncomment them one after another (the most important basis functions are
  #  listed first).
  #
  #  Constructed for dimers: 1.0 A, 1.208 A, 1.5 A, 2.0 A, 3.0 A
  #
  ################################################################################
  #  "First tier" - improvements: -699.05 meV to -159.38 meV
       hydro 2 p 1.8
       hydro 3 d 7.6
       hydro 3 s 6.4
  #  "Second tier" - improvements: -49.91 meV to -5.39 meV
  #     hydro 4 f 11.6
  #     hydro 3 p 6.2
  #     hydro 3 d 5.6
  #     hydro 5 g 17.6
  #     hydro 1 s 0.75
  #  "Third tier" - improvements: -2.83 meV to -0.50 meV
  #     ionic 2 p auto
  #     hydro 4 f 10.8
  #     hydro 4 d 4.7
  #     hydro 2 s 6.8
  #  "Fourth tier" - improvements: -0.40 meV to -0.12 meV
  #     hydro 3 p 5
  #     hydro 3 s 3.3
  #     hydro 5 g 15.6
  #     hydro 4 f 17.6
  #     hydro 4 d 14
  # Further basis functions - -0.08 meV and below
  #     hydro 3 s 2.1
  #     hydro 4 d 11.6
  #     hydro 3 p 16
  #     hydro 2 s 17.2
  
  -----------------------------------------------------------------------
  Completed first pass over input file control.in .
  -----------------------------------------------------------------------
  
  
  -----------------------------------------------------------------------
  Parsing geometry.in (first pass over file, find array dimensions only).
  The contents of geometry.in will be repeated verbatim below
  unless switched off by setting 'verbatim_writeout .false.' .
  in the first line of geometry.in .
  -----------------------------------------------------------------------
  
  #
  # This is the geometry file that corresponds to the current relaxation step.
  # If you do not want this file to be written, set the "write_restart_geometry" flag to .false.
  #  aims_uuid : 704D9F80-A97A-4D94-A235-1E89D88A13DD
  #
  lattice_vector      4.64306176      0.00012152     -0.00000000
  lattice_vector      0.00012172      4.64308665      0.00000000
  lattice_vector     -0.00000000      0.00000000      2.97288267
  atom_frac      -0.00000001      0.00000001     -0.00000000 Ti
  atom_frac       0.50000000      0.50000000      0.50000000 Ti
  atom_frac       0.30555823      0.30556717      0.00000000 O
  atom_frac       0.69444177      0.69443283      0.00000000 O
  atom_frac       0.19444622      0.80556274      0.50000000 O
  atom_frac       0.80555378      0.19443725      0.50000000 O
  #
  # What follows is the current estimated Hessian matrix constructed by the BFGS algorithm.
  # This is NOT the true Hessian matrix of the system.
  # If you do not want this information here, switch it off using the "hessian_to_restart_geometry" keyword.
  #
  trust_radius             0.8000000119
  hessian_file
  
  -----------------------------------------------------------------------
  Completed first pass over input file geometry.in .
  -----------------------------------------------------------------------
  

  Basic array size parameters:
  | Number of species                 :        2
  | Number of atoms                   :        6
  | Number of lattice vectors         :        3
  | Max. basis fn. angular momentum   :        3
  | Max. atomic/ionic basis occupied n:        4
  | Max. number of basis fn. types    :        3
  | Max. radial fns per species/type  :        7
  | Max. logarithmic grid size        :     1383
  | Max. radial integration grid size :       48
  | Max. angular integration grid size:      302
  | Max. angular grid division number :        8
  | Radial grid for Hartree potential :     1383
  | Number of spin channels           :        1

------------------------------------------------------------
          Reading file control.in.
------------------------------------------------------------
  XC: Using PBE gradient-corrected functionals.
  Scalar relativistic treatment of kinetic energy: ZORA.
  Threshold value for ZORA:   0.100000E-11
  Found k-point grid:        11        11        17
  Mulliken charge analysis will be performed and summarised to the main output.
  Full Mulliken charge analysis will be written to file 'Mulliken.out'.
 
  Reading configuration options for species Ti                  .
  | Found nuclear charge :  22.0000
  | Found atomic mass :    47.8670000000000      amu
  | Found l_max for Hartree potential  :   4
  | Found cutoff potl. onset [A], width [A], scale factor :    3.50000    1.50000    1.00000
  | Threshold for basis-dependent cutoff potential is   0.100000E-03
  | Found data for basic radial integration grid :    48 points, outermost radius =    5.000 A
  | Found multiplier for basic radial grid :   1
  | Found angular grid specification: user-specified.
  | Specified grid contains     5 separate shells.
  | Check grid settings after all constraints further below.
  | Found free-atom valence shell :  4 s   2.000
  | Found free-atom valence shell :  3 p   6.000
  | Found free-atom valence shell :  3 d   2.000
  | Found free-ion valence shell :  4 s   1.000
  | Found free-ion valence shell :  3 p   6.000
  | Found free-ion valence shell :  3 d   1.000
  | Found hydrogenic basis function :  4 f   8.000
  | Found hydrogenic basis function :  3 d   2.700
  | Found ionic basis function :  4 p , default cutoff radius.
  | Found ionic basis function :  4 s , default cutoff radius.
 | Encountered keyword species, ending the description of species Ti                  .
  Species Ti                  : Missing cutoff potential type.
  Defaulting to exp(1/x)/(1-x)^2 type cutoff potential.
  Species Ti: No 'logarithmic' tag. Using default grid for free atom:
  | Default logarithmic grid data [bohr] : 0.1000E-03 0.1000E+03 0.1012E+01
  | Will include ionic basis functions of  2.0-fold positive Ti                   ion.
  Species Ti: On-site basis accuracy parameter (for Gram-Schmidt orthonormalisation) not specified.
  Using default value basis_acc =  0.1000000E-03.
  Species Ti                  : Using default innermost maximum threshold i_radial=  2 for radial functions.
  Species Ti                  : Default cutoff onset for free atom density etc. : 0.35000000E+01 AA.
  Species Ti                  : Basic radial grid will be enhanced according to radial_multiplier =   1, to contain    48 grid points.
 
  Reading configuration options for species O                   .
  | Found nuclear charge :   8.0000
  | Found atomic mass :    15.9994000000000      amu
  | Found l_max for Hartree potential  :   4
  | Found cutoff potl. onset [A], width [A], scale factor :    3.50000    1.50000    1.00000
  | Threshold for basis-dependent cutoff potential is   0.100000E-03
  | Found data for basic radial integration grid :    36 points, outermost radius =    5.000 A
  | Found multiplier for basic radial grid :   1
  | Found angular grid specification: user-specified.
  | Specified grid contains     5 separate shells.
  | Check grid settings after all constraints further below.
  | Found free-atom valence shell :  2 s   2.000
  | Found free-atom valence shell :  2 p   4.000
  | Found free-ion valence shell :  2 s   1.000
  | Found free-ion valence shell :  2 p   3.000
  | Found hydrogenic basis function :  2 p   1.800
  | Found hydrogenic basis function :  3 d   7.600
  | Found hydrogenic basis function :  3 s   6.400
  Species O                   : Missing cutoff potential type.
  Defaulting to exp(1/x)/(1-x)^2 type cutoff potential.
  Species O : No 'logarithmic' tag. Using default grid for free atom:
  | Default logarithmic grid data [bohr] : 0.1000E-03 0.1000E+03 0.1012E+01
  Species O : On-site basis accuracy parameter (for Gram-Schmidt orthonormalisation) not specified.
  Using default value basis_acc =  0.1000000E-03.
  Species O                   : Using default innermost maximum threshold i_radial=  2 for radial functions.
  Species O                   : Default cutoff onset for free atom density etc. : 0.35000000E+01 AA.
  Species O                   : Basic radial grid will be enhanced according to radial_multiplier =   1, to contain    36 grid points.
 
  Finished reading input file 'control.in'.
 
------------------------------------------------------------


------------------------------------------------------------
          Reading geometry description geometry.in.
------------------------------------------------------------
 * Large trust radius value found - resetting to the current value of max_atomic_move,      0.20000000 A.
  Found keyword 'hessian_file', indicating that this is the continuation of a structure optimization.
  However, the control.in file does not request the geometry to be optimized.
  Ignoring the request for a file 'hessian.aims' to be present.
  | The smallest distance between any two atoms is         1.95947562 AA.
  | The first atom of this pair is atom number                      1 .
  | The second atom of this pair is atom number                     6 .
  | Wigner-Seitz cell of the first atom image           0     0     0 .
  | (The Wigner-Seitz cell of the second atom is 0 0 0  by definition.)

  Symmetry information by spglib:
  | Precision set to  0.1E-04
  | Number of Operations  : 4
  | Space group           : 10
  | International         : P2/m
  | Schoenflies           : C2h^1
  Input structure read successfully.
  The structure contains        6 atoms,  and a total of         76.000 electrons.

  Input geometry:
  | Unit cell:
  |        4.64306176        0.00012152        0.00000000
  |        0.00012172        4.64308665        0.00000000
  |        0.00000000        0.00000000        2.97288267
  | Atomic structure:
  |       Atom                x [A]            y [A]            z [A]
  |    1: Species Ti           -0.00000005        0.00000005        0.00000000
  |    2: Species Ti            2.32159174        2.32160409        1.48644134
  |    3: Species O             1.41876293        1.41881198        0.00000000
  |    4: Species O             3.22442055        3.22439619        0.00000000
  |    5: Species O             0.90292386        3.74032123        1.48644134
  |    6: Species O             3.74025962        0.90288689        1.48644134

  Lattice parameters for 3D lattice (in Angstroms) :     4.643062    4.643087    2.972883
  Angle(s) between unit vectors (in degrees)       :    90.000000   90.000000   89.996998


  Quantities derived from the lattice vectors (in Angstrom^-1):
  | Reciprocal lattice vector 1:  1.353242 -0.000035  0.000000
  | Reciprocal lattice vector 2: -0.000035  1.353235  0.000000
  | Reciprocal lattice vector 3:  0.000000  0.000000  2.113499
  | Unit cell volume                               :   0.640898E+02  Angstrom^3

  Fractional coordinates:
                         L1                L2                L3
       atom_frac        -0.00000001        0.00000001        0.00000000  Ti
       atom_frac         0.50000000        0.50000000        0.50000000  Ti
       atom_frac         0.30555823        0.30556717        0.00000000  O
       atom_frac         0.69444177        0.69443283        0.00000000  O
       atom_frac         0.19444622        0.80556274        0.50000000  O
       atom_frac         0.80555378        0.19443725        0.50000000  O

  Slab Identifier: This seems to be a bulk system.
 
  Finished reading input file 'geometry.in'.
 

 
  Consistency checks for stacksize environment parameter are next.
 
  | Maximum stacksize for task 0: unlimited
  | Maximum stacksize for task 1: unlimited
  | Maximum stacksize for task 2: unlimited
  | Maximum stacksize for task 3: unlimited
  | Maximum stacksize for task 4: unlimited
  | Maximum stacksize for task 5: unlimited
  | Maximum stacksize for task 6: unlimited
  | Maximum stacksize for task 7: unlimited
  | Maximum stacksize for task 8: unlimited
  | Maximum stacksize for task 9: unlimited
  | Maximum stacksize for task 10: unlimited
  | Maximum stacksize for task 11: unlimited
  | Maximum stacksize for task 12: unlimited
  | Maximum stacksize for task 13: unlimited
  | Maximum stacksize for task 14: unlimited
  | Maximum stacksize for task 15: unlimited
  | Maximum stacksize for task 16: unlimited
  | Maximum stacksize for task 17: unlimited
  | Maximum stacksize for task 18: unlimited
  | Maximum stacksize for task 19: unlimited
  | Maximum stacksize for task 20: unlimited
  | Maximum stacksize for task 21: unlimited
  | Maximum stacksize for task 22: unlimited
  | Maximum stacksize for task 23: unlimited
  | Maximum stacksize for task 24: unlimited
  | Maximum stacksize for task 25: unlimited
  | Maximum stacksize for task 26: unlimited
  | Maximum stacksize for task 27: unlimited
  | Maximum stacksize for task 28: unlimited
  | Maximum stacksize for task 29: unlimited
  | Maximum stacksize for task 30: unlimited
  | Maximum stacksize for task 31: unlimited
  | Current stacksize for task 0: unlimited
  | Current stacksize for task 1: unlimited
  | Current stacksize for task 2: unlimited
  | Current stacksize for task 3: unlimited
  | Current stacksize for task 4: unlimited
  | Current stacksize for task 5: unlimited
  | Current stacksize for task 6: unlimited
  | Current stacksize for task 7: unlimited
  | Current stacksize for task 8: unlimited
  | Current stacksize for task 9: unlimited
  | Current stacksize for task 10: unlimited
  | Current stacksize for task 11: unlimited
  | Current stacksize for task 12: unlimited
  | Current stacksize for task 13: unlimited
  | Current stacksize for task 14: unlimited
  | Current stacksize for task 15: unlimited
  | Current stacksize for task 16: unlimited
  | Current stacksize for task 17: unlimited
  | Current stacksize for task 18: unlimited
  | Current stacksize for task 19: unlimited
  | Current stacksize for task 20: unlimited
  | Current stacksize for task 21: unlimited
  | Current stacksize for task 22: unlimited
  | Current stacksize for task 23: unlimited
  | Current stacksize for task 24: unlimited
  | Current stacksize for task 25: unlimited
  | Current stacksize for task 26: unlimited
  | Current stacksize for task 27: unlimited
  | Current stacksize for task 28: unlimited
  | Current stacksize for task 29: unlimited
  | Current stacksize for task 30: unlimited
  | Current stacksize for task 31: unlimited
 
  Consistency checks for the contents of control.in are next.
 
  MPI_IN_PLACE appears to work with this MPI implementation.
  | Keeping use_mpi_in_place .true. (see manual).
  Target number of points in a grid batch is not set. Defaulting to  100
  Method for grid partitioning is not set. Defaulting to parallel hash+maxmin partitioning.
  Batch size limit is not set. Defaulting to    200
  By default, will store active basis functions for each batch.
  If in need of memory, prune_basis_once .false. can be used to disable this option.
  communication_type for Hartree potential was not specified.
  Defaulting to calc_hartree .
  Defaulting to Pulay charge density mixer.
  Pulay mixer: Number of relevant iterations not set.
  Defaulting to    8 iterations.
  Pulay mixer: Number of initial linear mixing iterations not set.
  Defaulting to    0 iterations.
  Work space size for distributed Hartree potential not set.
  Defaulting to   0.200000E+03 MB.
  Mixing parameter for charge density mixing has not been set.
  Using default: charge_mix_param =     0.0500.
  The mixing parameter will be adjusted in iteration number     2 of each s.c.f. cycle (i.e., each geometry step).
  Algorithm-dependent basis array size parameters:
  | n_max_pulay                         :        8
  Maximum number of self-consistency iterations not provided.
  Presetting  1000 iterations.
  Presetting      1001 iterations before the initial mixing cycle
  is restarted anyway using the sc_init_iter criterion / keyword.
  Presetting a factor      1.000 between actual scf density residual
  and density convergence criterion sc_accuracy_rho below which sc_init_iter
  takes no effect.
 * No s.c.f. convergence criteria (sc_accuracy_*) were provided in control.in.
 * The run will proceed with a reasonable default guess, but please check whether.
 * the s.c.f. cycles seem to take too much or too little time.
  Calculation of forces was not defined in control.in. No forces will be calculated.
  Geometry relaxation not requested: no relaxation will be performed.
 * Notice: The s.c.f. convergence criterion sc_accuracy_rho was not provided.
 * We used to stop in this case, and ask the user to provide reasonable
 * scf convergence criteria. However, this led some users to employ criteria
 * that led to extremely long run times, e.g., for simple relaxation.
 * We now preset a default value for sc_accuracy_rho if it is not set.
 * You may still wish to check if this setting is too tight or too loose for your needs.
 * Based on n_atoms and forces and force-correction status, FHI-aims chose sc_accuracy_rho =  0.100000E-05 .
  No accuracy limit for integral partition fn. given. Defaulting to  0.1000E-14.
  No threshold value for u(r) in integrations given. Defaulting to  0.1000E-05.
  No occupation type (smearing scheme) given. Defaulting to Gaussian broadening, width =  0.1000E-01 eV.
  The width will be adjusted in iteration number     2 of each s.c.f. cycle (i.e., each geometry step).
  No accuracy for occupation numbers given. Defaulting to  0.1000E-12.
  No threshold value for occupation numbers given. Defaulting to  0.0000E+00.
  No accuracy for fermi level given. Defaulting to  0.1000E-19.
  Maximum # of iterations to find E_F not set. Defaulting to  200.
  Preferred method for the eigenvalue solver ('KS_method') not specified in 'control.in'.
  Defaulting to serial version, LAPACK (via ELSI), since more k-points than CPUs available.
  Will not use alltoall communication since running on < 1024 CPUs.
  Threshold for basis singularities not set.
  Default threshold for basis singularities:  0.1000E-04
  partition_type (choice of integration weights) for integrals was not specified.
  | Using a version of the partition function of Stratmann and coworkers ('stratmann_sparse').
  | At each grid point, the set of atoms used to build the partition table is smoothly restricted to
  | only those atoms whose free-atom density would be non-zero at that grid point.
  Partitioning for Hartree potential was not defined. Using partition_type for integrals.
  | Adjusted default value of keyword multip_moments_threshold to:       0.10000000E-11
  | This value may affect high angular momentum components of the Hartree potential in periodic systems.
  Spin handling was not defined in control.in. Defaulting to unpolarized case.
  No q(lm)/r^(l+1) cutoff set for long-range Hartree potential.
  | Using default value of  0.100000E-09 .
  | Verify using the multipole_threshold keyword.
  Defaulting to new monopole extrapolation.
  Density update method: automatic selection selected.
  Using density matrix based charge density update.
  Using density matrix based charge density update.
  Using packed matrix style: index .
  Defaulting to use time-reversal symmetry for k-point grid.
  Charge integration errors on the 3D integration grid will be compensated
  by explicit normalization and distribution of residual charges.
  Use the "compensate_multipole_errors" flag to change this behaviour.
  Set 'collect_eigenvectors' to be '.true.' for all serial calculations. This is mandatory.
  Set 'collect_eigenvectors' to be '.true.' for KS_method lapack_fast and serial.
  Found potential conflicts with setting 'use_local_index' for this calculation. Will not set it.
 
  Consistency checks for the contents of geometry.in are next.
 

  Range separation radius for Ewald summation (hartree_convergence_parameter):      3.05697894 bohr.
  Number of empty states per atom not set in control.in - providing a guess from actual geometry.
  | Total number of empty states used during s.c.f. cycle:       23
  If you use a very high smearing, use empty_states (per atom!) in control.in to increase this value.

  Structure-dependent array size parameters: 
  | Maximum number of distinct radial functions  :       17
  | Maximum number of basis functions            :      118
  | Number of Kohn-Sham states (occupied + empty):       61
------------------------------------------------------------
  After read_input_data [GB]:    408.78

  Performing system and environment tests:
  *** Environment variable OMP_NUM_THREADS is not set
  *** For performance reasons you might want to set it to 1
  | Checking for ScaLAPACK...
  | Testing pdtran()...
  | All pdtran() tests passed.
  After prepare_system [GB]:    408.67

------------------------------------------------------------
          Preparing all fixed parts of the calculation.
------------------------------------------------------------
  Determining machine precision:
    2.225073858507201E-308
  Setting up grids for atomic and cluster calculations.

  Creating wave function, potential, and density for free atoms.
  Runtime choices for atomic solver:
  | atomic solver xc        : PBE
  | compute density gradient: 1
  | compute kinetic density : F

  Species: Ti

  List of occupied orbitals and eigenvalues:
    n    l              occ      energy [Ha]    energy [eV]
    1    0           2.0000      -179.959082     -4896.9358
    2    0           2.0000       -19.727662      -536.8170
    3    0           2.0000        -2.283029       -62.1244
    4    0           2.0000        -0.148384        -4.0377
    2    1           6.0000       -16.317278      -444.0157
    3    1           6.0000        -1.409348       -38.3503
    3    2           2.0000        -0.139340        -3.7916


  Species: O

  List of occupied orbitals and eigenvalues:
    n    l              occ      energy [Ha]    energy [eV]
    1    0           2.0000       -18.926989      -515.0296
    2    0           2.0000        -0.880247       -23.9527
    2    1           4.0000        -0.331514        -9.0210


  Adding cutoff potential to free-atom effective potential.
  Creating fixed part of basis set: Ionic, confined, hydrogenic.
 
  Ti                   ion:

  List of free ionic orbitals and eigenvalues:
    n    l      energy [Ha]    energy [eV]
    1    0      -180.819616     -4920.3521
    2    0       -20.608761      -560.7929
    3    0        -3.115729       -84.7833
    4    0        -0.697188       -18.9715
    2    1       -17.196209      -467.9327
    3    1        -2.231296       -60.7167
    3    2        -0.911363       -24.7995


  List of ionic basis orbitals and eigenvalues:
    n    l      energy [Ha]    energy [eV]    outer radius [A]
    4    1        -0.517739       -14.0884       4.592117
    4    0        -0.696824       -18.9615       4.536321

 
  Ti                   hydrogenic:
 
  List of hydrogenic basis orbitals: 
    n    l      effective z      eigenvalue [eV]  inner max. [A]     outer max. [A]     outer radius [A]   
    4    3         8.000000       -54.4222           1.059019           1.059019           4.267343
    3    2         2.700000       -10.7798           1.726925           1.726925           4.592117
 
 
  O                    hydrogenic:
 
  List of hydrogenic basis orbitals: 
    n    l      effective z      eigenvalue [eV]  inner max. [A]     outer max. [A]     outer radius [A]   
    2    1         1.800000       -10.9749           1.164242           1.164242           4.578029
    3    2         7.600000       -87.3180           0.624125           0.624125           3.251020
    3    0         6.400000       -61.9207           0.061167           1.081902           4.001998
 
  Creating atomic-like basis functions for current effective potential.

  Species Ti                  :

  List of atomic basis orbitals and eigenvalues:
    n    l      energy [Ha]    energy [eV]    outer radius [A]
    1    0      -179.959082     -4896.9358       0.490254
    2    0       -19.727662      -536.8170       1.491292
    3    0        -2.283029       -62.1244       4.014314
    4    0        -0.148384        -4.0377       4.592117
    2    1       -16.317278      -444.0157       1.585290
    3    1        -1.409348       -38.3503       4.267343
    3    2        -0.139340        -3.7916       4.536321


  Species O                   :

  List of atomic basis orbitals and eigenvalues:
    n    l      energy [Ha]    energy [eV]    outer radius [A]
    1    0       -18.926989      -515.0296       1.415765
    2    0        -0.880247       -23.9527       4.413171
    2    1        -0.331514        -9.0210       4.522403

  Assembling full basis from fixed parts.
  | Species Ti :   atomic orbital   1 s accepted.
  | Species Ti :   atomic orbital   2 s accepted.
  | Species Ti :   atomic orbital   3 s accepted.
  | Species Ti :    ionic orbital   4 s accepted.
  | Species Ti :   atomic orbital   4 s accepted.
  | Species Ti :   atomic orbital   2 p accepted.
  | Species Ti :   atomic orbital   3 p accepted.
  | Species Ti :    ionic orbital   4 p accepted.
  | Species Ti :   atomic orbital   3 d accepted.
  | Species Ti :    hydro orbital   3 d accepted.
  | Species Ti :    hydro orbital   4 f accepted.
  | Species O :   atomic orbital   1 s accepted.
  | Species O :    hydro orbital   3 s accepted.
  | Species O :   atomic orbital   2 s accepted.
  | Species O :   atomic orbital   2 p accepted.
  | Species O :    hydro orbital   2 p accepted.
  | Species O :    hydro orbital   3 d accepted.
 
  Basis size parameters after reduction:
  | Total number of radial functions:       17
  | Total number of basis functions :      118
 
  Per-task memory consumption for arrays in subroutine allocate_ext:
  |           4.518024MB.
  Testing on-site integration grid accuracy.
  |  Species  Function  <phi|h_atom|phi> (log., in eV)  <phi|h_atom|phi> (rad., in eV)
           1        1              -4896.9357674450              -4896.9322838106
           1        2               -536.8170048508               -536.8169722776
           1        3                -62.1243896260                -62.1243889401
           1        4                 -3.2653235630                 -3.2692838824
           1        5                  6.7987747276                  6.5460721871 ***
           1        6               -444.0157161949               -444.0157165643
           1        7                -38.3503235548                -38.3503234985
           1        8                  0.2923930877                  0.2745948114
           1        9                 -3.7933400649                 -3.7959244171
           1       10                  6.3288803616                  6.2510614935 ***
           1       11                 27.8451455747                 27.8452636415
           2       12               -515.0295626295               -515.0294562869
           2       13                 15.1698434419                 15.1699322205
           2       14                -21.6038822678                -21.6039118108
           2       15                 -9.0211123393                 -9.0212703513
           2       16                  8.3047696391                  8.2854840999
           2       17                 45.8428042125                 45.8427461223
 * Note: Onsite integrals marked "***" above are less accurate than
 * onsite_accuracy_threshold =    0.03000 eV. Usually, this is harmless.
 * When in doubt, tighten the "radial" and/or "radial_multiplier" flags to check.

  Preparing densities etc. for the partition functions (integrals / Hartree potential).

  Preparations completed.
  max(cpu_time)          :      0.314 s.
  Wall clock time (cpu1) :      0.314 s.
------------------------------------------------------------
  After prepare_scf [GB]:    407.20

  Initializing index lists of integration centers etc. from given atomic structure:
  Mapping all atomic coordinates to central unit cell.

  Initializing the k-points
  Using symmetry for reducing the k-points
  | k-points reduced from:     2057 to     1029
  | Number of k-points                             :      1029
  The eigenvectors in the calculations are COMPLEX.
  | K-points in task   0:        32
  | K-points in task   1:        33
  | K-points in task   2:        33
  | K-points in task   3:        33
  | K-points in task   4:        33
  | K-points in task   5:        33
  | K-points in task   6:        32
  | K-points in task   7:        32
  | K-points in task   8:        32
  | K-points in task   9:        32
  | K-points in task  10:        32
  | K-points in task  11:        32
  | K-points in task  12:        32
  | K-points in task  13:        32
  | K-points in task  14:        32
  | K-points in task  15:        32
  | K-points in task  16:        32
  | K-points in task  17:        32
  | K-points in task  18:        32
  | K-points in task  19:        32
  | K-points in task  20:        32
  | K-points in task  21:        32
  | K-points in task  22:        32
  | K-points in task  23:        32
  | K-points in task  24:        32
  | K-points in task  25:        32
  | K-points in task  26:        32
  | K-points in task  27:        32
  | K-points in task  28:        32
  | K-points in task  29:        32
  | K-points in task  30:        32
  | K-points in task  31:        32
  | Number of basis functions in the Hamiltonian integrals :      2853
  | Number of basis functions in a single unit cell        :       118
  | Number of centers in hartree potential         :      1180
  | Number of centers in hartree multipole         :       741
  | Number of centers in electron density summation:       532
  | Number of centers in basis integrals           :       579
  | Number of centers in integrals                 :       201
  | Number of centers in hamiltonian               :       532
  | Consuming       2058 KiB for k_phase.
  | Number of super-cells (origin) [n_cells]                     :         891
  | Number of super-cells (after PM_index) [n_cells]             :         128
  | Number of super-cells in hamiltonian [n_cells_in_hamiltonian]:         128
  | Size of matrix packed + index [n_hamiltonian_matrix_size] :      267065
  After initialize_bc_dependent_lists [GB]:    407.20

------------------------------------------------------------
          Begin self-consistency loop: Initialization.

          Date     :  20250120, Time     :  140622.400
------------------------------------------------------------
  Available memory per node after initialize_hartree_non_periodic_ewald [GB]:    407.20
  | Estimated reciprocal-space cutoff momentum G_max:         3.08889186 bohr^-1 .
  | Reciprocal lattice points for long-range Hartree potential:     208
  Available memory per node after initialize_recip_hartree_potential [GB]:    407.20
  Available memory per node after initialize_scalapack [GB]:    407.20
  Available memory per node after aims_elsi_init_scf [GB]:    407.20
  Available memory per node after initialize_fixed_grids [GB]:    407.20
  Partitioning the integration grid into batches with parallel hashing+maxmin method.
  | Number of batches:      551
  | Maximal batch size:     117
  | Minimal batch size:      51
  | Average batch size:      69.561
  | Standard deviation of batch sizes:      19.286

  Integration load balanced across    32 MPI tasks.
  Work distribution over tasks is as follows:
  Task     0 has       1205 integration points.
  Task     1 has       1178 integration points.
  Task     2 has       1211 integration points.
  Task     3 has       1206 integration points.
  Task     4 has       1177 integration points.
  Task     5 has       1197 integration points.
  Task     6 has       1162 integration points.
  Task     7 has       1206 integration points.
  Task     8 has       1200 integration points.
  Task     9 has       1267 integration points.
  Task    10 has       1222 integration points.
  Task    11 has       1160 integration points.
  Task    12 has       1211 integration points.
  Task    13 has       1165 integration points.
  Task    14 has       1161 integration points.
  Task    15 has       1215 integration points.
  Task    16 has       1254 integration points.
  Task    17 has       1167 integration points.
  Task    18 has       1210 integration points.
  Task    19 has       1162 integration points.
  Task    20 has       1167 integration points.
  Task    21 has       1207 integration points.
  Task    22 has       1167 integration points.
  Task    23 has       1162 integration points.
  Task    24 has       1200 integration points.
  Task    25 has       1218 integration points.
  Task    26 has       1201 integration points.
  Task    27 has       1258 integration points.
  Task    28 has       1202 integration points.
  Task    29 has       1271 integration points.
  Task    30 has       1171 integration points.
  Task    31 has       1168 integration points.
  Available memory per node after partition_grid [GB]:    407.20
  Initializing partition tables, free-atom densities, potentials, etc. across the integration grid (initialize_grid_storage).
  | initialize_grid_storage: Actual outermost partition radius vs. multipole_radius_free
  | (-- VB: in principle, multipole_radius_free should be larger, hence this output)
  | Species        1: Confinement radius =              4.999999999999999 AA, multipole_radius_free =              5.002391649902235 AA.
  | Species        1: outer_partition_radius set to              5.002391649902235 AA .
  | Species        2: Confinement radius =              4.999999999999999 AA, multipole_radius_free =              5.048384829883283 AA.
  | Species        2: outer_partition_radius set to              5.048384829883283 AA .
  | The sparse table of interatomic distances needs       1445.87 kbyte instead of      2681.93 kbyte of memory.
  | Net number of integration points:    38328
  | of which are non-zero points    :    31516
  | Numerical average free-atom electrostatic potential    :    -17.70534924 eV
  Available memory per node after initialize_grid_storage_p1 [GB]:    407.20
  Renormalizing the initial density to the exact electron count on the 3D integration grid.
  | Initial density: Formal number of electrons (from input files) :      76.0000000000
  | Integrated number of electrons on 3D grid     :      76.0006127020
  | Charge integration error                      :       0.0006127020
  | Normalization factor for density and gradient :       0.9999919382
  Renormalizing the free-atom superposition density to the exact electron count on the 3D integration grid.
  | Formal number of electrons (from input files) :      76.0000000000
  | Integrated number of electrons on 3D grid     :      76.0006127020
  | Charge integration error                      :       0.0006127020
  | Normalization factor for density and gradient :       0.9999919382
  Obtaining max. number of non-zero basis functions in each batch (get_n_compute_maxes).
  | Maximal number of non-zero basis functions:      805 in task     0
  | Maximal number of non-zero basis functions:      776 in task     1
  | Maximal number of non-zero basis functions:      792 in task     2
  | Maximal number of non-zero basis functions:      806 in task     3
  | Maximal number of non-zero basis functions:      801 in task     4
  | Maximal number of non-zero basis functions:      788 in task     5
  | Maximal number of non-zero basis functions:      801 in task     6
  | Maximal number of non-zero basis functions:      832 in task     7
  | Maximal number of non-zero basis functions:      822 in task     8
  | Maximal number of non-zero basis functions:      793 in task     9
  | Maximal number of non-zero basis functions:      806 in task    10
  | Maximal number of non-zero basis functions:      798 in task    11
  | Maximal number of non-zero basis functions:      786 in task    12
  | Maximal number of non-zero basis functions:      813 in task    13
  | Maximal number of non-zero basis functions:      824 in task    14
  | Maximal number of non-zero basis functions:      820 in task    15
  | Maximal number of non-zero basis functions:      805 in task    16
  | Maximal number of non-zero basis functions:      822 in task    17
  | Maximal number of non-zero basis functions:      826 in task    18
  | Maximal number of non-zero basis functions:      816 in task    19
  | Maximal number of non-zero basis functions:      786 in task    20
  | Maximal number of non-zero basis functions:      806 in task    21
  | Maximal number of non-zero basis functions:      801 in task    22
  | Maximal number of non-zero basis functions:      822 in task    23
  | Maximal number of non-zero basis functions:      808 in task    24
  | Maximal number of non-zero basis functions:      810 in task    25
  | Maximal number of non-zero basis functions:      826 in task    26
  | Maximal number of non-zero basis functions:      799 in task    27
  | Maximal number of non-zero basis functions:      802 in task    28
  | Maximal number of non-zero basis functions:      808 in task    29
  | Maximal number of non-zero basis functions:      812 in task    30
  | Maximal number of non-zero basis functions:      811 in task    31
  Available memory per node after get_n_compute_maxes_p1 [GB]:    407.20
  Allocating        3.515 MB for KS_eigenvector_complex
  Available memory per node after allocate_matrices [GB]:    407.19
  Available memory per node after init_comm_sparse_local_matrix_scalapack [GB]:    407.18
  Integrating Hamiltonian matrix: batch-based integration.
  Time summed over all CPUs for integration: real work       10.903 s, elapsed       20.504 s => Consider using load balancing!
  Available memory per node after integrate hamiltonian matrix [GB]:    407.13
  Integrating overlap matrix.
  Time summed over all CPUs for integration: real work        3.143 s, elapsed        6.411 s
  Available memory per node after integrate ovlp matrix [GB]:    407.13
  Available memory per node after ASI_callbacks invoke [GB]:    407.13
  Available memory per node after save_overlap_scalapack [GB]:    407.13

  Updating Kohn-Sham eigenvalues and eigenvectors using ELSI and the (modified) LAPACK eigensolver.
  Singularity check in k-point 32, task 0 (analysis for other k-points/tasks may follow below):
  Overlap matrix is not singular
  | Lowest and highest eigenvalues :  0.6207E-03,  0.7886E+01
  Finished singularity check of overlap matrix
  | Time :     0.003 s
  Starting LAPACK eigensolver
  Finished Cholesky decomposition
  | Time :     0.000 s
  Finished transformation to standard eigenproblem
  | Time :     0.002 s
  Finished solving standard eigenproblem
  | Time :     0.002 s
  Finished back-transformation of eigenvectors
  | Time :     0.000 s

  Obtaining occupation numbers and electronic chemical potential using ELSI.
  | Note that, for insulating systems, the printed 'chemical potential' value is not uniquely defined.
  | It can be anywhere in the energy gap, as long as it correctly separates occupied and unoccupied states.
  | In systems with a gap, the physically relevant chemical potential is the VBM or HOMO.

  | Chemical potential (Fermi level):    -5.31955031 eV
  Available memory per node after advance_KS_solution [GB]:    407.10
  Writing Kohn-Sham eigenvalues.
  K-point:       1 at    0.000000    0.000000    0.000000 (in units of recip. lattice)

  State    Occupation    Eigenvalue [Ha]    Eigenvalue [eV]
      1       2.00000        -179.962388        -4897.02573
      2       2.00000        -179.962387        -4897.02571
      3       2.00000         -19.737970         -537.09748
      4       2.00000         -19.737969         -537.09746
      5       2.00000         -19.034656         -517.95934
      6       2.00000         -19.034656         -517.95934
      7       2.00000         -19.034638         -517.95885
      8       2.00000         -19.034638         -517.95885
      9       2.00000         -16.328137         -444.31122
     10       2.00000         -16.328137         -444.31120
     11       2.00000         -16.327824         -444.30271
     12       2.00000         -16.327824         -444.30269
     13       2.00000         -16.327813         -444.30241
     14       2.00000         -16.327812         -444.30238
     15       2.00000          -2.309738          -62.85117
     16       2.00000          -2.308979          -62.83051
     17       2.00000          -1.449871          -39.45299
     18       2.00000          -1.449864          -39.45281
     19       2.00000          -1.442187          -39.24391
     20       2.00000          -1.440626          -39.20143
     21       2.00000          -1.439891          -39.18143
     22       2.00000          -1.439886          -39.18128
     23       2.00000          -1.067787          -29.05596
     24       2.00000          -1.034361          -28.14638
     25       2.00000          -1.005301          -27.35563
     26       2.00000          -1.005289          -27.35531
     27       2.00000          -0.584937          -15.91695
     28       2.00000          -0.563045          -15.32122
     29       2.00000          -0.547039          -14.88569
     30       2.00000          -0.514626          -14.00368
     31       2.00000          -0.514602          -14.00304
     32       2.00000          -0.490257          -13.34057
     33       2.00000          -0.490250          -13.34038
     34       2.00000          -0.474246          -12.90489
     35       2.00000          -0.440313          -11.98153
     36       2.00000          -0.432904          -11.77992
     37       2.00000          -0.432899          -11.77977
     38       2.00000          -0.414639          -11.28291
     39       0.00000          -0.194054           -5.28048
     40       0.00000          -0.187591           -5.10462
     41       0.00000          -0.160729           -4.37366
     42       0.00000          -0.156811           -4.26704
     43       0.00000          -0.156807           -4.26695
     44       0.00000          -0.105093           -2.85971
     45       0.00000          -0.099102           -2.69669
     46       0.00000          -0.071888           -1.95618
     47       0.00000          -0.041060           -1.11729
     48       0.00000          -0.041049           -1.11701
     49       0.00000          -0.012365           -0.33647
     50       0.00000           0.105557            2.87236
     51       0.00000           0.105565            2.87257
     52       0.00000           0.187269            5.09585
     53       0.00000           0.293080            7.97510
     54       0.00000           0.300281            8.17106
     55       0.00000           0.324353            8.82609
     56       0.00000           0.374983           10.20380
     57       0.00000           0.375036           10.20525
     58       0.00000           0.479039           13.03531
     59       0.00000           0.571099           15.54040
     60       0.00000           0.670345           18.24101
     61       0.00000           0.732482           19.93185

  What follows are estimated values for band gap, HOMO, LUMO, etc.
  | They are estimated on a discrete k-point grid and not necessarily exact.
  | For converged numbers, create a DOS and/or band structure plot on a denser k-grid.

  Highest occupied state (VBM) at    -11.28290681 eV (relative to internal zero)
  | Occupation number:      2.00000000
  | K-point:       1 at    0.000000    0.000000    0.000000 (in units of recip. lattice)

  Lowest unoccupied state (CBM) at    -5.28047924 eV (relative to internal zero)
  | Occupation number:      0.00000003
  | K-point:       1 at    0.000000    0.000000    0.000000 (in units of recip. lattice)

  ESTIMATED overall HOMO-LUMO gap:      6.00242757 eV between HOMO at k-point 1 and LUMO at k-point 1
  | This appears to be a direct band gap.
  The gap value is above 0.2 eV. Unless you are using a very sparse k-point grid,
  this system is most likely an insulator or a semiconductor.
  Calculating total energy contributions from superposition of free atom densities.

  Total energy components:
  | Sum of eigenvalues            :       -1193.69265372 Ha      -32482.02977525 eV
  | XC energy correction          :        -118.32065097 Ha       -3219.66872795 eV
  | XC potential correction       :         152.99091824 Ha        4163.09470131 eV
  | Free-atom electrostatic energy:        -855.18259917 Ha      -23270.70252384 eV
  | Hartree energy correction     :           0.00000000 Ha           0.00000000 eV
  | Entropy correction            :          -0.00000000 Ha          -0.00000000 eV
  | ---------------------------
  | Total energy                  :       -2014.20498563 Ha      -54809.30632573 eV
  | Total energy, T -> 0          :       -2014.20498563 Ha      -54809.30632573 eV  <-- do not rely on this value for anything but (periodic) metals
  | Electronic free energy        :       -2014.20498563 Ha      -54809.30632573 eV

  Derived energy quantities:
  | Kinetic energy                :        2026.85996147 Ha       55153.66573932 eV
  | Electrostatic energy          :       -3922.74429613 Ha     -106743.30333710 eV
  | Energy correction for multipole
  | error in Hartree potential    :           0.00000000 Ha           0.00000000 eV
  | Sum of eigenvalues per atom                           :       -5413.67162921 eV
  | Total energy (T->0) per atom                          :       -9134.88438762 eV  <-- do not rely on this value for anything but (periodic) metals
  | Electronic free energy per atom                       :       -9134.88438762 eV
  Initialize hartree_potential_storage
  Max. number of atoms included in rho_multipole:            6

  End scf initialization - timings             :  max(cpu_time)    wall_clock(cpu1)
  | Time for scf. initialization                :        1.754 s           1.754 s
  | Boundary condition initialization           :        0.091 s           0.090 s
  | Integration                                 :        0.884 s           0.883 s
  | Solution of K.-S. eqns.                     :        0.659 s           0.659 s
  | Grid partitioning                           :        0.031 s           0.031 s
  | Preloading free-atom quantities on grid     :        0.161 s           0.163 s
  | Free-atom superposition energy              :        0.014 s           0.013 s
  | Total energy evaluation                     :        0.003 s           0.004 s

  Partial memory accounting:
  | Current value for overall tracked memory usage:
  |   Minimum:        8.650 MB (on task  0)
  |   Maximum:        8.760 MB (on task  1)
  |   Average:        8.667 MB
  | Peak value for overall tracked memory usage:
  |   Minimum:       19.606 MB (on task  1 after allocating zora_vector2)
  |   Maximum:       20.634 MB (on task  7 after allocating zora_vector2)
  |   Average:       20.138 MB
  | Largest tracked array allocation so far:
  |   Minimum:        4.594 MB (hamiltonian_shell on task  1)
  |   Maximum:        5.281 MB (hamiltonian_shell on task  7)
  |   Average:        4.970 MB
  Note:  These values currently only include a subset of arrays which are explicitly tracked.
  The "true" memory usage will be greater.
------------------------------------------------------------
  Available memory after initialize_scf [GB]:    407.10
  Available memory after allocating mixing [GB]:    407.10
  Evaluating new KS density using the density matrix
  Evaluating density matrix
  Time summed over all CPUs for getting density from density matrix: real work       10.359 s, elapsed       16.552 s
  Integration grid: deviation in total charge (<rho> - N_e) =   1.598721E-11

  Time for density update prior                :  max(cpu_time)    wall_clock(cpu1)
  | self-consistency iterative process          :        0.573 s           0.573 s
  Available memory before start of SCF loop [GB]:    407.09

------------------------------------------------------------
          Begin self-consistency iteration #    1

  Date     :  20250120, Time     :  140624.727
------------------------------------------------------------
  Pulay mixing of updated and previous charge densities.
  Available memory per node after mixing [GB]:    407.09
  Renormalizing the density to the exact electron count on the 3D integration grid.
  | Formal number of electrons (from input files) :      76.0000000000
  | Integrated number of electrons on 3D grid     :      76.0000000000
  | Charge integration error                      :       0.0000000000
  | Normalization factor for density and gradient :       1.0000000000

  Evaluating partitioned Hartree potential by multipole expansion.
  | Original multipole sum: apparent total charge =  -0.629702E-14
  | Sum of charges compensated after spline to logarithmic grids =  -0.794394E-06
  | Analytical far-field extrapolation by fixed multipoles:
  | Hartree multipole sum: apparent total charge =  -0.627242E-14
  Summing up the Hartree potential.
  Time summed over all CPUs for potential: real work        0.024 s, elapsed        0.043 s
  | RMS charge density error from multipole expansion :   0.110227E-02
  | Average real-space part of the electrostatic potential :      0.07371272 eV

  Integrating Hamiltonian matrix: batch-based integration.
  Time summed over all CPUs for integration: real work       10.840 s, elapsed       21.518 s => Consider using load balancing!

  Updating Kohn-Sham eigenvalues and eigenvectors using ELSI and the (modified) LAPACK eigensolver.
  Starting LAPACK eigensolver
  Finished Cholesky decomposition
  | Time :     0.000 s
  Finished transformation to standard eigenproblem
  | Time :     0.002 s
  Finished solving standard eigenproblem
  | Time :     0.003 s
  Finished back-transformation of eigenvectors
  | Time :     0.001 s

  Obtaining occupation numbers and electronic chemical potential using ELSI.
  | Note that, for insulating systems, the printed 'chemical potential' value is not uniquely defined.
  | It can be anywhere in the energy gap, as long as it correctly separates occupied and unoccupied states.
  | In systems with a gap, the physically relevant chemical potential is the VBM or HOMO.

  | Chemical potential (Fermi level):    -5.62086561 eV
  Writing Kohn-Sham eigenvalues.
  K-point:       1 at    0.000000    0.000000    0.000000 (in units of recip. lattice)

  State    Occupation    Eigenvalue [Ha]    Eigenvalue [eV]
      1       2.00000        -179.997675        -4897.98593
      2       2.00000        -179.997671        -4897.98583
      3       2.00000         -19.772271         -538.03088
      4       2.00000         -19.772268         -538.03079
      5       2.00000         -18.995718         -516.89979
      6       2.00000         -18.995718         -516.89978
      7       2.00000         -18.995700         -516.89929
      8       2.00000         -18.995700         -516.89929
      9       2.00000         -16.362611         -445.24930
     10       2.00000         -16.362608         -445.24921
     11       2.00000         -16.362350         -445.24220
     12       2.00000         -16.362347         -445.24211
     13       2.00000         -16.362342         -445.24197
     14       2.00000         -16.362338         -445.24188
     15       2.00000          -2.332137          -63.46068
     16       2.00000          -2.331428          -63.44138
     17       2.00000          -1.469502          -39.98719
     18       2.00000          -1.469495          -39.98700
     19       2.00000          -1.462799          -39.80478
     20       2.00000          -1.461361          -39.76564
     21       2.00000          -1.460717          -39.74813
     22       2.00000          -1.460713          -39.74802
     23       2.00000          -1.053341          -28.66288
     24       2.00000          -1.018487          -27.71444
     25       2.00000          -0.990512          -26.95319
     26       2.00000          -0.990498          -26.95283
     27       2.00000          -0.574963          -15.64554
     28       2.00000          -0.553556          -15.06302
     29       2.00000          -0.536101          -14.58805
     30       2.00000          -0.503322          -13.69609
     31       2.00000          -0.503297          -13.69542
     32       2.00000          -0.476233          -12.95897
     33       2.00000          -0.476226          -12.95877
     34       2.00000          -0.459359          -12.49980
     35       2.00000          -0.423445          -11.52253
     36       2.00000          -0.415365          -11.30265
     37       2.00000          -0.415359          -11.30250
     38       2.00000          -0.396509          -10.78957
     39       0.00000          -0.205127           -5.58178
     40       0.00000          -0.201530           -5.48392
     41       0.00000          -0.176483           -4.80235
     42       0.00000          -0.172991           -4.70734
     43       0.00000          -0.172990           -4.70730
     44       0.00000          -0.116539           -3.17120
     45       0.00000          -0.114035           -3.10306
     46       0.00000          -0.067761           -1.84388
     47       0.00000          -0.052769           -1.43592
     48       0.00000          -0.052761           -1.43569
     49       0.00000          -0.022865           -0.62218
     50       0.00000           0.107063            2.91333
     51       0.00000           0.107071            2.91356
     52       0.00000           0.191575            5.21301
     53       0.00000           0.285486            7.76846
     54       0.00000           0.305848            8.32253
     55       0.00000           0.321601            8.75120
     56       0.00000           0.377367           10.26868
     57       0.00000           0.377420           10.27013
     58       0.00000           0.475263           12.93256
     59       0.00000           0.575794           15.66815
     60       0.00000           0.663065           18.04292
     61       0.00000           0.727656           19.80053

  What follows are estimated values for band gap, HOMO, LUMO, etc.
  | They are estimated on a discrete k-point grid and not necessarily exact.
  | For converged numbers, create a DOS and/or band structure plot on a denser k-grid.

  Highest occupied state (VBM) at    -10.78956617 eV (relative to internal zero)
  | Occupation number:      2.00000000
  | K-point:       1 at    0.000000    0.000000    0.000000 (in units of recip. lattice)

  Lowest unoccupied state (CBM) at    -5.58178096 eV (relative to internal zero)
  | Occupation number:      0.00000003
  | K-point:       1 at    0.000000    0.000000    0.000000 (in units of recip. lattice)

  ESTIMATED overall HOMO-LUMO gap:      5.20778521 eV between HOMO at k-point 1 and LUMO at k-point 1
  | This appears to be a direct band gap.
  The gap value is above 0.2 eV. Unless you are using a very sparse k-point grid,
  this system is most likely an insulator or a semiconductor.

  Total energy components:
  | Sum of eigenvalues            :       -1193.96673467 Ha      -32489.48789724 eV
  | XC energy correction          :        -118.36338700 Ha       -3220.83163429 eV
  | XC potential correction       :         153.04498674 Ha        4164.56598000 eV
  | Free-atom electrostatic energy:        -855.18259917 Ha      -23270.70252384 eV
  | Hartree energy correction     :           0.37611417 Ha          10.23458726 eV
  | Entropy correction            :          -0.00000000 Ha          -0.00000000 eV
  | ---------------------------
  | Total energy                  :       -2014.09161993 Ha      -54806.22148811 eV
  | Total energy, T -> 0          :       -2014.09161993 Ha      -54806.22148811 eV  <-- do not rely on this value for anything but (periodic) metals
  | Electronic free energy        :       -2014.09161993 Ha      -54806.22148811 eV

  Derived energy quantities:
  | Kinetic energy                :        2027.11888318 Ha       55160.71135753 eV
  | Electrostatic energy          :       -3922.84711612 Ha     -106746.10121135 eV
  | Energy correction for multipole
  | error in Hartree potential    :           0.00131895 Ha           0.03589042 eV
  | Sum of eigenvalues per atom                           :       -5414.91464954 eV
  | Total energy (T->0) per atom                          :       -9134.37024802 eV  <-- do not rely on this value for anything but (periodic) metals
  | Electronic free energy per atom                       :       -9134.37024802 eV
  Evaluating new KS density using the density matrix
  Evaluating density matrix
  Time summed over all CPUs for getting density from density matrix: real work       10.713 s, elapsed       16.207 s
  Integration grid: deviation in total charge (<rho> - N_e) =   1.581668E-11

  Self-consistency convergence accuracy:
  | Change of charge density      :  0.7566E+00
  | Change of unmixed KS density  :  0.7214E+02
  | Change of sum of eigenvalues  : -0.7458E+01 eV
  | Change of total energy        :  0.3085E+01 eV


------------------------------------------------------------
  End self-consistency iteration #     1       :  max(cpu_time)    wall_clock(cpu1)
  | Time for this iteration                     :        1.754 s           1.754 s
  | Charge density update                       :        0.548 s           0.549 s
  | Density mixing                              :        0.001 s           0.001 s
  | Hartree multipole update                    :        0.002 s           0.002 s
  | Hartree multipole summation                 :        0.048 s           0.047 s
  | Integration                                 :        0.681 s           0.682 s
  | Solution of K.-S. eqns.                     :        0.470 s           0.470 s
  | Total energy evaluation                     :        0.002 s           0.002 s

  Partial memory accounting:
  | Current value for overall tracked memory usage:
  |   Minimum:        9.296 MB (on task 11)
  |   Maximum:        9.434 MB (on task  2)
  |   Average:        9.334 MB
  | Peak value for overall tracked memory usage:
  |   Minimum:       20.262 MB (on task  1 after allocating zora_vector2)
  |   Maximum:       21.306 MB (on task  7 after allocating zora_vector2)
  |   Average:       20.805 MB
  | Largest tracked array allocation so far:
  |   Minimum:        4.594 MB (hamiltonian_shell on task  1)
  |   Maximum:        5.281 MB (hamiltonian_shell on task  7)
  |   Average:        4.970 MB
  Note:  These values currently only include a subset of arrays which are explicitly tracked.
  The "true" memory usage will be greater.
------------------------------------------------------------

------------------------------------------------------------
          Begin self-consistency iteration #    2

  Date     :  20250120, Time     :  140626.481
------------------------------------------------------------
  Pulay mixing of updated and previous charge densities.
  Available memory per node after mixing [GB]:    407.07
  Renormalizing the density to the exact electron count on the 3D integration grid.
  | Formal number of electrons (from input files) :      76.0000000000
  | Integrated number of electrons on 3D grid     :      76.0000000000
  | Charge integration error                      :       0.0000000000
  | Normalization factor for density and gradient :       1.0000000000

  Evaluating partitioned Hartree potential by multipole expansion.
  | Original multipole sum: apparent total charge =   0.951932E-14
  | Sum of charges compensated after spline to logarithmic grids =  -0.484258E-05
  | Analytical far-field extrapolation by fixed multipoles:
  | Hartree multipole sum: apparent total charge =   0.922415E-14
  Summing up the Hartree potential.
  Time summed over all CPUs for potential: real work        0.025 s, elapsed        0.049 s
  | RMS charge density error from multipole expansion :   0.677370E-02
  | Average real-space part of the electrostatic potential :      0.42509496 eV

  Integrating Hamiltonian matrix: batch-based integration.
  Time summed over all CPUs for integration: real work       10.312 s, elapsed       22.682 s => Consider using load balancing!

  Updating Kohn-Sham eigenvalues and eigenvectors using ELSI and the (modified) LAPACK eigensolver.
  Starting LAPACK eigensolver
  Finished Cholesky decomposition
  | Time :     0.000 s
  Finished transformation to standard eigenproblem
  | Time :     0.002 s
  Finished solving standard eigenproblem
  | Time :     0.003 s
  Finished back-transformation of eigenvectors
  | Time :     0.000 s

  Obtaining occupation numbers and electronic chemical potential using ELSI.
  | Note that, for insulating systems, the printed 'chemical potential' value is not uniquely defined.
  | It can be anywhere in the energy gap, as long as it correctly separates occupied and unoccupied states.
  | In systems with a gap, the physically relevant chemical potential is the VBM or HOMO.

  | Chemical potential (Fermi level):    -7.49127718 eV
  What follows are estimated values for band gap, HOMO, LUMO, etc.
  | They are estimated on a discrete k-point grid and not necessarily exact.
  | For converged numbers, create a DOS and/or band structure plot on a denser k-grid.

  Highest occupied state (VBM) at     -8.60989174 eV (relative to internal zero)
  | Occupation number:      2.00000000
  | K-point:       1 at    0.000000    0.000000    0.000000 (in units of recip. lattice)

  Lowest unoccupied state (CBM) at    -7.45220194 eV (relative to internal zero)
  | Occupation number:      0.00000003
  | K-point:       1 at    0.000000    0.000000    0.000000 (in units of recip. lattice)

  ESTIMATED overall HOMO-LUMO gap:      1.15768981 eV between HOMO at k-point 1 and LUMO at k-point 1
  | This appears to be a direct band gap.
  The gap value is above 0.2 eV. Unless you are using a very sparse k-point grid,
  this system is most likely an insulator or a semiconductor.

  Checking to see if s.c.f. parameters should be adjusted.
  The system likely has a gap. Increased the default Pulay mixing parameter (charge_mix_param). Value:   0.200000 .
  Kept the default occupation width. Value:   0.010000 eV.

  Total energy components:
  | Sum of eigenvalues            :       -1195.56575667 Ha      -32532.99949968 eV
  | XC energy correction          :        -118.56799056 Ha       -3226.39918041 eV
  | XC potential correction       :         153.30390032 Ha        4171.61137702 eV
  | Free-atom electrostatic energy:        -855.18259917 Ha      -23270.70252384 eV
  | Hartree energy correction     :           2.13845706 Ha          58.19037729 eV
  | Entropy correction            :          -0.00000000 Ha          -0.00000000 eV
  | ---------------------------
  | Total energy                  :       -2013.87398901 Ha      -54800.29944961 eV
  | Total energy, T -> 0          :       -2013.87398901 Ha      -54800.29944961 eV  <-- do not rely on this value for anything but (periodic) metals
  | Electronic free energy        :       -2013.87398901 Ha      -54800.29944961 eV

  Derived energy quantities:
  | Kinetic energy                :        2027.85350422 Ha       55180.70141312 eV
  | Electrostatic energy          :       -3923.15950268 Ha     -106754.60168232 eV
  | Energy correction for multipole
  | error in Hartree potential    :           0.00802774 Ha           0.21844603 eV
  | Sum of eigenvalues per atom                           :       -5422.16658328 eV
  | Total energy (T->0) per atom                          :       -9133.38324160 eV  <-- do not rely on this value for anything but (periodic) metals
  | Electronic free energy per atom                       :       -9133.38324160 eV
  Evaluating new KS density using the density matrix
  Evaluating density matrix
  Time summed over all CPUs for getting density from density matrix: real work       10.285 s, elapsed       16.830 s
  Integration grid: deviation in total charge (<rho> - N_e) =   1.593037E-11

  Self-consistency convergence accuracy:
  | Change of charge density      :  0.6308E+00
  | Change of unmixed KS density  :  0.9454E-01
  | Change of sum of eigenvalues  : -0.4351E+02 eV
  | Change of total energy        :  0.5922E+01 eV


------------------------------------------------------------
  End self-consistency iteration #     2       :  max(cpu_time)    wall_clock(cpu1)
  | Time for this iteration                     :        1.758 s           1.759 s
  | Charge density update                       :        0.568 s           0.569 s
  | Density mixing                              :        0.001 s           0.001 s
  | Hartree multipole update                    :        0.001 s           0.002 s
  | Hartree multipole summation                 :        0.052 s           0.052 s
  | Integration                                 :        0.718 s           0.718 s
  | Solution of K.-S. eqns.                     :        0.414 s           0.414 s
  | Total energy evaluation                     :        0.003 s           0.002 s

  Partial memory accounting:
  | Current value for overall tracked memory usage:
  |   Minimum:        9.297 MB (on task 11)
  |   Maximum:        9.435 MB (on task  2)
  |   Average:        9.335 MB
  | Peak value for overall tracked memory usage:
  |   Minimum:       20.263 MB (on task  1 after allocating zora_vector2)
  |   Maximum:       21.307 MB (on task  7 after allocating zora_vector2)
  |   Average:       20.806 MB
  | Largest tracked array allocation so far:
  |   Minimum:        4.594 MB (hamiltonian_shell on task  1)
  |   Maximum:        5.281 MB (hamiltonian_shell on task  7)
  |   Average:        4.970 MB
  Note:  These values currently only include a subset of arrays which are explicitly tracked.
  The "true" memory usage will be greater.
------------------------------------------------------------

------------------------------------------------------------
          Begin self-consistency iteration #    3

  Date     :  20250120, Time     :  140628.240
------------------------------------------------------------
  Pulay mixing of updated and previous charge densities.
  Available memory per node after mixing [GB]:    407.07
  Renormalizing the density to the exact electron count on the 3D integration grid.
  | Formal number of electrons (from input files) :      76.0000000000
  | Integrated number of electrons on 3D grid     :      76.0000000000
  | Charge integration error                      :       0.0000000000
  | Normalization factor for density and gradient :       1.0000000000

  Evaluating partitioned Hartree potential by multipole expansion.
  | Original multipole sum: apparent total charge =  -0.393564E-15
  | Sum of charges compensated after spline to logarithmic grids =  -0.292719E-05
  | Analytical far-field extrapolation by fixed multipoles:
  | Hartree multipole sum: apparent total charge =  -0.983910E-16
  Summing up the Hartree potential.
  Time summed over all CPUs for potential: real work        0.025 s, elapsed        0.050 s
  | RMS charge density error from multipole expansion :   0.774632E-02
  | Average real-space part of the electrostatic potential :      0.41505031 eV

  Integrating Hamiltonian matrix: batch-based integration.
  Time summed over all CPUs for integration: real work       10.842 s, elapsed       22.289 s => Consider using load balancing!

  Updating Kohn-Sham eigenvalues and eigenvectors using ELSI and the (modified) LAPACK eigensolver.
  Starting LAPACK eigensolver
  Finished Cholesky decomposition
  | Time :     0.001 s
  Finished transformation to standard eigenproblem
  | Time :     0.001 s
  Finished solving standard eigenproblem
  | Time :     0.003 s
  Finished back-transformation of eigenvectors
  | Time :     0.000 s

  Obtaining occupation numbers and electronic chemical potential using ELSI.
  | Note that, for insulating systems, the printed 'chemical potential' value is not uniquely defined.
  | It can be anywhere in the energy gap, as long as it correctly separates occupied and unoccupied states.
  | In systems with a gap, the physically relevant chemical potential is the VBM or HOMO.

  | Chemical potential (Fermi level):    -6.67026173 eV
  What follows are estimated values for band gap, HOMO, LUMO, etc.
  | They are estimated on a discrete k-point grid and not necessarily exact.
  | For converged numbers, create a DOS and/or band structure plot on a denser k-grid.

  Highest occupied state (VBM) at     -9.16115375 eV (relative to internal zero)
  | Occupation number:      2.00000000
  | K-point:       1 at    0.000000    0.000000    0.000000 (in units of recip. lattice)

  Lowest unoccupied state (CBM) at    -6.63116945 eV (relative to internal zero)
  | Occupation number:      0.00000003
  | K-point:       1 at    0.000000    0.000000    0.000000 (in units of recip. lattice)

  ESTIMATED overall HOMO-LUMO gap:      2.52998430 eV between HOMO at k-point 1 and LUMO at k-point 1
  | This appears to be a direct band gap.
  The gap value is above 0.2 eV. Unless you are using a very sparse k-point grid,
  this system is most likely an insulator or a semiconductor.

  Total energy components:
  | Sum of eigenvalues            :       -1194.36327534 Ha      -32500.27831796 eV
  | XC energy correction          :        -118.55385992 Ha       -3226.01466627 eV
  | XC potential correction       :         153.28775891 Ha        4171.17214688 eV
  | Free-atom electrostatic energy:        -855.18259917 Ha      -23270.70252384 eV
  | Hartree energy correction     :           0.93556725 Ha          25.45808023 eV
  | Entropy correction            :          -0.00000000 Ha          -0.00000000 eV
  | ---------------------------
  | Total energy                  :       -2013.87640827 Ha      -54800.36528096 eV
  | Total energy, T -> 0          :       -2013.87640827 Ha      -54800.36528096 eV  <-- do not rely on this value for anything but (periodic) metals
[...]
     49       0.00000          -0.035025           -0.95309
     50       0.00000           0.123472            3.35984
     51       0.00000           0.123481            3.36010
     52       0.00000           0.227141            6.18083
     53       0.00000           0.268524            7.30691
     54       0.00000           0.323748            8.80963
     55       0.00000           0.343951            9.35937
     56       0.00000           0.397119           10.80615
     57       0.00000           0.397172           10.80759
     58       0.00000           0.469879           12.78607
     59       0.00000           0.602971           16.40767
     60       0.00000           0.643485           17.51012
     61       0.00000           0.717035           19.51152

  What follows are estimated values for band gap, HOMO, LUMO, etc.
  | They are estimated on a discrete k-point grid and not necessarily exact.
  | For converged numbers, create a DOS and/or band structure plot on a denser k-grid.

  Highest occupied state (VBM) at     -8.70336477 eV (relative to internal zero)
  | Occupation number:      2.00000000
  | K-point:       1 at    0.000000    0.000000    0.000000 (in units of recip. lattice)

  Lowest unoccupied state (CBM) at    -6.93767740 eV (relative to internal zero)
  | Occupation number:      0.00000003
  | K-point:       1 at    0.000000    0.000000    0.000000 (in units of recip. lattice)

  ESTIMATED overall HOMO-LUMO gap:      1.76568737 eV between HOMO at k-point 1 and LUMO at k-point 1
  | This appears to be a direct band gap.
  The gap value is above 0.2 eV. Unless you are using a very sparse k-point grid,
  this system is most likely an insulator or a semiconductor.

  | Chemical Potential                          :    -6.97674864 eV
  | Note that, for insulating systems, the printed 'chemical potential' value is not uniquely defined.
  | It can be anywhere in the energy gap, as long as it correctly separates occupied and unoccupied states.
  | In systems with a gap, the physically relevant chemical potential is the VBM or HOMO.

  Self-consistency cycle converged.


------------------------------------------------------------
  End self-consistency iteration #    18       :  max(cpu_time)    wall_clock(cpu1)
  | Time for this iteration                     :        1.134 s           1.134 s
  | Charge density update                       :        0.000 s           0.000 s
  | Density mixing                              :        0.001 s           0.001 s
  | Hartree multipole update                    :        0.001 s           0.001 s
  | Hartree multipole summation                 :        0.047 s           0.048 s
  | Integration                                 :        0.631 s           0.630 s
  | Solution of K.-S. eqns.                     :        0.449 s           0.450 s
  | Total energy evaluation                     :        0.003 s           0.003 s

  Partial memory accounting:
  | Current value for overall tracked memory usage:
  |   Minimum:        9.297 MB (on task 11)
  |   Maximum:        9.435 MB (on task  2)
  |   Average:        9.335 MB
  | Peak value for overall tracked memory usage:
  |   Minimum:       20.263 MB (on task  1 after allocating zora_vector2)
  |   Maximum:       21.307 MB (on task  7 after allocating zora_vector2)
  |   Average:       20.806 MB
  | Largest tracked array allocation so far:
  |   Minimum:        4.594 MB (hamiltonian_shell on task  1)
  |   Maximum:        5.281 MB (hamiltonian_shell on task  7)
  |   Average:        4.970 MB
  Note:  These values currently only include a subset of arrays which are explicitly tracked.
  The "true" memory usage will be greater.
------------------------------------------------------------

------------------------------------------------------------
          Post-processing: scaled ZORA corrections to eigenvalues and total energy.

  Date     :  20250120, Time     :  140655.959
------------------------------------------------------------
  Computing correction matrix for scaled ZORA eigenvalues.
  Evaluating scaled zora correction for each Kohn-Sham eigenstate.
  Writing Kohn-Sham eigenvalues.
  K-point:       1 at    0.000000    0.000000    0.000000 (in units of recip. lattice)

  State    Occupation    Eigenvalue [Ha]    Eigenvalue [eV]
      1       2.00000        -178.966508        -4869.92647
      2       2.00000        -178.966490        -4869.92598
      3       2.00000         -19.862452         -540.48483
      4       2.00000         -19.862436         -540.48438
      5       2.00000         -18.854171         -513.04810
      6       2.00000         -18.854171         -513.04810
      7       2.00000         -18.854162         -513.04785
      8       2.00000         -18.854162         -513.04785
      9       2.00000         -16.454675         -447.75449
     10       2.00000         -16.454658         -447.75404
     11       2.00000         -16.454518         -447.75023
     12       2.00000         -16.454501         -447.74976
     13       2.00000         -16.454474         -447.74901
     14       2.00000         -16.454457         -447.74856
     15       2.00000          -2.414561          -65.70356
     16       2.00000          -2.414023          -65.68892
     17       2.00000          -1.543671          -42.00542
     18       2.00000          -1.543660          -42.00513
     19       2.00000          -1.537986          -41.85072
     20       2.00000          -1.537982          -41.85063
     21       2.00000          -1.537187          -41.82899
     22       2.00000          -1.536115          -41.79982
     23       2.00000          -0.986158          -26.83472
     24       2.00000          -0.945025          -25.71543
     25       2.00000          -0.919380          -25.01761
     26       2.00000          -0.919365          -25.01720
     27       2.00000          -0.530053          -14.42349
     28       2.00000          -0.514132          -13.99023
     29       2.00000          -0.492988          -13.41490
     30       2.00000          -0.459039          -12.49108
     31       2.00000          -0.459011          -12.49034
     32       2.00000          -0.413277          -11.24584
     33       2.00000          -0.413266          -11.24554
     34       2.00000          -0.392078          -10.66899
     35       2.00000          -0.347015           -9.44275
     36       2.00000          -0.337294           -9.17825
     37       2.00000          -0.337288           -9.17808
     38       2.00000          -0.319819           -8.70271
     39       0.00000          -0.254927           -6.93692
     40       0.00000          -0.243981           -6.63907
     41       0.00000          -0.234234           -6.37384
     42       0.00000          -0.232397           -6.32385
     43       0.00000          -0.232388           -6.32361
     44       0.00000          -0.167886           -4.56842
     45       0.00000          -0.158683           -4.31798
     46       0.00000          -0.084644           -2.30328
     47       0.00000          -0.084642           -2.30323
     48       0.00000          -0.053154           -1.44640
     49       0.00000          -0.035023           -0.95302
     50       0.00000           0.123464            3.35962
     51       0.00000           0.123473            3.35988
     52       0.00000           0.227124            6.18036
     53       0.00000           0.268501            7.30629
     54       0.00000           0.323719            8.80884
     55       0.00000           0.343913            9.35835
     56       0.00000           0.397081           10.80513
     57       0.00000           0.397134           10.80656
     58       0.00000           0.469836           12.78490
     59       0.00000           0.602906           16.40591
     60       0.00000           0.643420           17.50835
     61       0.00000           0.716956           19.50937

  What follows are estimated values for band gap, HOMO, LUMO, etc.
  | They are estimated on a discrete k-point grid and not necessarily exact.
  | For converged numbers, create a DOS and/or band structure plot on a denser k-grid.

  Highest occupied state (VBM) at     -8.70270970 eV (relative to internal zero)
  | Occupation number:      2.00000000
  | K-point:       1 at    0.000000    0.000000    0.000000 (in units of recip. lattice)

  Lowest unoccupied state (CBM) at    -6.93692026 eV (relative to internal zero)
  | Occupation number:      0.00000003
  | K-point:       1 at    0.000000    0.000000    0.000000 (in units of recip. lattice)

  ESTIMATED overall HOMO-LUMO gap:      1.76578945 eV between HOMO at k-point 1 and LUMO at k-point 1
  | This appears to be a direct band gap.
  The gap value is above 0.2 eV. Unless you are using a very sparse k-point grid,
  this system is most likely an insulator or a semiconductor.

  Total energy components:
  | Sum of eigenvalues            :       -1189.48693501 Ha      -32367.58634642 eV
  | XC energy correction          :        -118.61907965 Ha       -3227.78938529 eV
  | XC potential correction       :         153.36902687 Ha        4173.38356067 eV
  | Free-atom electrostatic energy:        -855.18259917 Ha      -23270.70252384 eV
  | Hartree energy correction     :           0.94783123 Ha          25.79180002 eV
  | Entropy correction            :          -0.00000000 Ha          -0.00000000 eV
  | ---------------------------
  | Total energy                  :       -2008.97175573 Ha      -54666.90289486 eV
  | Total energy, T -> 0          :       -2008.97175573 Ha      -54666.90289486 eV  <-- do not rely on this value for anything but (periodic) metals
  | Electronic free energy        :       -2008.97175573 Ha      -54666.90289486 eV

  Derived energy quantities:
  | Kinetic energy                :        2032.62714016 Ha       55310.59865592 eV
  | Electrostatic energy          :       -3922.97981624 Ha     -106749.71216549 eV
  | Energy correction for multipole
  | error in Hartree potential    :           0.02042276 Ha           0.55573163 eV
  | Sum of eigenvalues per atom                           :       -5394.59772440 eV
  | Total energy (T->0) per atom                          :       -9111.15048248 eV  <-- do not rely on this value for anything but (periodic) metals
  | Electronic free energy per atom                       :       -9111.15048248 eV
  End evaluation of scaled ZORA corrections.
  | Time for scaled ZORA corrections            :        0.997 s           0.998 s
------------------------------------------------------------

  Energy and forces in a compact form:
  | Total energy uncorrected      :         -0.546669028948599E+05 eV
  | Total energy corrected        :         -0.546669028948599E+05 eV  <-- do not rely on this value for anything but (periodic) metals
  | Electronic free energy        :         -0.546669028948599E+05 eV

  ------------------------------------ 
  Start decomposition of the XC Energy 
  ------------------------------------ 
  X and C from original XC functional choice 
  Hartree-Fock Energy :          0.000000000 Ha              0.000000000 eV
  X Energy            :       -115.608802814 Ha          -3145.875584955 eV
  C Energy            :         -3.010276832 Ha            -81.913800333 eV
  XC Energy w/o HF    :       -118.619079646 Ha          -3227.789385288 eV
  Total XC Energy     :       -118.619079646 Ha          -3227.789385288 eV
  ------------------------------------ 
  LDA X and C from self-consistent density 
  X Energy LDA        :       -107.321613857 Ha          -2920.369699811 eV
  C Energy LDA        :         -5.870980734 Ha           -159.757514136 eV
  ------------------------------------ 
  End decomposition of the XC Energy 
  ------------------------------------ 

------------------------------------------------------------

  ------------------------------------------------------------
                   Starting Mulliken Analysis
  ------------------------------------------------------------

  Performing Mulliken charge analysis on all atoms.
  Full analysis will be written to separate file 'Mulliken.out'.
  Summary of the per-atom charge analysis:
  |
  |  atom       electrons          charge             l=0             l=1             l=2             l=3
  |     1       20.751755        1.248245        5.963310       12.509136        2.134247        0.145062
  |     2       20.751814        1.248186        5.963304       12.509152        2.134288        0.145070
  |     3        8.624115       -0.624115        3.848006        4.766232        0.009878
  |     4        8.624115       -0.624115        3.848006        4.766232        0.009878
  |     5        8.624100       -0.624100        3.847995        4.766225        0.009880
  |     6        8.624100       -0.624100        3.847995        4.766225        0.009880
  |
  | Total       76.000000       -0.000000
 
  Writing Mulliken decomposition to disk ...

  Mulliken analysis                                       :  max(cpu_time)    wall_clock(cpu1)
  | Time for Mulliken analysis                            :          4.998               5.012
  | Total time for Mulliken analysis                      :          4.998               5.012
------------------------------------------------------------

------------------------------------------------------------------------------
  Final output of selected total energy values:

  The following output summarizes some interesting total energy values
  at the end of a run (AFTER all relaxation, molecular dynamics, etc.).

  | Total energy of the DFT / Hartree-Fock s.c.f. calculation      :         -54666.902894860 eV
  | Final zero-broadening corrected energy (caution - metals only) :         -54666.902894860 eV
  | For reference only, the value of 1 Hartree used in FHI-aims is :             27.211384500 eV
  | For reference only, the overall average (free atom contribution
  | + realspace contribution) of the electrostatic potential after
  | s.c.f. convergence is                                          :            -17.020952592 eV

  Before relying on these values, please be sure to understand exactly which
  total energy value is referred to by a given number. Different objects may
  all carry the same name 'total energy'. Definitions:

  Total energy of the DFT / Hartree-Fock s.c.f. calculation:
  | Note that this energy does not include ANY quantities calculated after the
  | s.c.f. cycle, in particular not ANY RPA, MP2, etc. many-body perturbation terms.
  | Scalar relativistic effects have been included in the 'scaled ZORA' approximation.

  Final zero-broadening corrected energy:
  | For metallic systems only, a broadening of the occupation numbers at the Fermi
  | level can be extrapolated back to zero broadening by an electron-gas inspired
  | formula. For all systems that are not real metals, this value can be
  | meaningless and should be avoided.

------------------------------------------------------------------------------
  Methods described in the following list of references were used in this FHI-aims run.
  If you publish the results, please make sure to cite these reference if they apply.
  FHI-aims is an academic code, and for our developers (often, Ph.D. students
  and postdocs), scientific credit in the community is essential.
  Thank you for helping us!

  For any use of FHI-aims, please cite:

    Volker Blum, Ralf Gehrke, Felix Hanke, Paula Havu, Ville Havu,
    Xinguo Ren, Karsten Reuter, and Matthias Scheffler
    'Ab initio molecular simulations with numeric atom-centered orbitals'
    Computer Physics Communications 180, 2175-2196 (2009)
    http://doi.org/10.1016/j.cpc.2009.06.022


  The provided symmetry information was generated with SPGlib:

    Atsushi Togo, Yusuke Seto, Dimitar Pashov
    SPGlib 1.7.3 obtained from http://spglib.sourceforge.net
    Licence: New BSD license
    Copyright (C) 2008 Atsushi Togo


  The ELSI infrastructure was used in your run to solve the Kohn-Sham electronic structure.
  Please check out https://wordpress.elsi-interchange.org to learn more.
  If scalability is important for your project, please acknowledge ELSI by citing:

    V. W-z. Yu, F. Corsetti, A. Garcia, W. P. Huhn, M. Jacquelin, W. Jia,
    B. Lange, L. Lin, J. Lu, W. Mi, A. Seifitokaldani, A. Vazquez-Mayagoitia,
    C. Yang, H. Yang, and V. Blum
    'ELSI: A unified software interface for Kohn-Sham electronic structure solvers'
    Computer Physics Communications 222, 267-285 (2018).
    http://doi.org/10.1016/j.cpc.2017.09.007


  For the real-space grid partitioning and parallelization used in this calculation, please cite:

    Ville Havu, Volker Blum, Paula Havu, and Matthias Scheffler,
    'Efficient O(N) integration for all-electron electronic structure calculation'
    'using numerically tabulated basis functions'
    Journal of Computational Physics 228, 8367-8379 (2009).
    http://doi.org/10.1016/j.jcp.2009.08.008

  Of course, there are many other important community references, e.g., those cited in the
  above references. Our list is limited to references that describe implementations in the
  FHI-aims code. The reason is purely practical (length of this list) - please credit others as well.

------------------------------------------------------------
          Leaving FHI-aims.
          Date     :  20250120, Time     :  140701.987

          Computational steps:
          | Number of self-consistency cycles          :           18
          | Number of SCF (re)initializations          :            1

          Detailed time accounting                     :  max(cpu_time)    wall_clock(cpu1)
          | Total time                                  :       40.085 s          40.094 s
          | Preparation time                            :        0.314 s           0.314 s
          | Boundary condition initalization            :        0.091 s           0.090 s
          | Grid partitioning                           :        0.031 s           0.031 s
          | Preloading free-atom quantities on grid     :        0.161 s           0.163 s
          | Free-atom superposition energy              :        0.014 s           0.013 s
          | Total time for integrations                 :       12.890 s          12.891 s
          | Total time for solution of K.-S. equations  :        8.615 s           8.617 s
          | Total time for density update               :       10.781 s          10.782 s
          | Total time for mixing                       :        0.016 s           0.018 s
          | Total time for Hartree multipole update     :        0.029 s           0.027 s
          | Total time for Hartree multipole sum        :        0.944 s           0.945 s
          | Total time for total energy evaluation      :        0.050 s           0.054 s
          | Total time for scaled ZORA corrections      :        0.997 s           0.998 s
          | Total time for Mulliken analysis            :        5.012 s           5.012 s

          Partial memory accounting:
          | Residual value for overall tracked memory usage across tasks:     0.000000 MB (should be 0.000000 MB)
          | Peak values for overall tracked memory usage:
          |   Minimum:       20.263 MB (on task  1 after allocating zora_vector2)
          |   Maximum:       21.307 MB (on task  7 after allocating zora_vector2)
          |   Average:       20.806 MB
          | Largest tracked array allocation:
          |   Minimum:        4.594 MB (hamiltonian_shell on task  1)
          |   Maximum:        5.281 MB (hamiltonian_shell on task  7)
          |   Average:        4.970 MB
          Note:  These values currently only include a subset of arrays which are explicitly tracked.
          The "true" memory usage will be greater.

          Have a nice day.
------------------------------------------------------------
