------------------------------------------------------------
          Invoking FHI-aims ...

          When using FHI-aims, please cite the following reference:

            Volker Blum, Ralf Gehrke, Felix Hanke, Paula Havu,
            Ville Havu, Xinguo Ren, Karsten Reuter, and Matthias Scheffler,
            'Ab Initio Molecular Simulations with Numeric Atom-Centered Orbitals',
            Computer Physics Communications 180, 2175-2196 (2009)

          In addition, many other developments in FHI-aims are likely important for
          your particular application. If so, please cite them. A partial list of references
          is written at the end of this file. Thank you for giving credit to the authors
          of these developments.

          For general information about FHI-aims please find us at

            https://fhi-aims.org

          Online tutorials can be found at

            https://fhi-aims-club.gitlab.io/tutorials/tutorials-overview/

          For any questions about FHI-aims, please visit our slack channel at

            https://fhi-aims.slack.com

          and our main development and support site at

            https://aims-git.rz-berlin.mpg.de .

          The latter site, in particular, has a wiki to collect information, as well
          as an issue tracker to log discussions, suggest improvements, and report issues
          or bugs. https://aims-git.rz-berlin.mpg.de is also the main development site
          of the project and all new and updated code versions can be obtained there.
          Please send an email to aims-coordinators@fhi-berlin.mpg.de and we will add
          you to these sites. They are for you and everyone is welcome there.

------------------------------------------------------------



  Date     :  20250120, Time     :  140721.969
  Time zero on CPU 1             :   0.444609000000000E+00  s.
  Internal wall clock time zero  :           506614041.969  s.

  FHI-aims created a unique identifier for this run for later identification
  aims_uuid : 42A0F2E3-BA7B-47B8-A598-AF00286A8E77

  Build configuration of the current instance of FHI-aims
  -------------------------------------------------------
  FHI-aims version      : 240605
  Commit number         : b001b2e18
  CMake host system     : Linux-6.5.0-41-generic
  CMake version         : 3.22.1
  Fortran compiler      : /opt/intel/oneapi/mpi/2021.12/bin/mpiifort (IntelLLVM) version 2024.1.0
  Fortran compiler flags: -fc=ifx -O3 -ip -fp-model precise
  C compiler            : /opt/intel/oneapi/mpi/2021.12/bin/mpiicc (IntelLLVM) version 2024.1.0
  C compiler flags      : -cc=icx -O3 -ip -fp-model precise -std=gnu99
  C++ compiler          : /opt/intel/oneapi/mpi/2021.12/bin/mpiicpc (IntelLLVM) version 2024.1.0
  C++ compiler flags    : -cxx=icpx -O3 -ip -fp-model precise -std=c++11
  HIP compiler          :
  HIP compiler flags    :
  HIP GPU arch          :
  Using MPI
  Using ScaLAPACK
  Using LibXC
  Using i-PI
  Using RLSY
  Linking against: /opt/intel/oneapi/mkl/2024.1/lib/intel64/libmkl_intel_lp64.so
                   /opt/intel/oneapi/mkl/2024.1/lib/intel64/libmkl_sequential.so
                   /opt/intel/oneapi/mkl/2024.1/lib/intel64/libmkl_core.so
                   /opt/intel/oneapi/mkl/2024.1/lib/intel64/libmkl_blacs_intelmpi_lp64.so
                   /opt/intel/oneapi/mkl/2024.1/lib/intel64/libmkl_scalapack_lp64.so
                   /opt/intel/oneapi/mkl/2024.1/lib/intel64/libmkl_core.so

  Using       32 parallel tasks.
  Task        0 on host RSL-arvutus reporting.
  Task        1 on host RSL-arvutus reporting.
  Task        2 on host RSL-arvutus reporting.
  Task        3 on host RSL-arvutus reporting.
  Task        4 on host RSL-arvutus reporting.
  Task        5 on host RSL-arvutus reporting.
  Task        6 on host RSL-arvutus reporting.
  Task        7 on host RSL-arvutus reporting.
  Task        8 on host RSL-arvutus reporting.
  Task        9 on host RSL-arvutus reporting.
  Task       10 on host RSL-arvutus reporting.
  Task       11 on host RSL-arvutus reporting.
  Task       12 on host RSL-arvutus reporting.
  Task       13 on host RSL-arvutus reporting.
  Task       14 on host RSL-arvutus reporting.
  Task       15 on host RSL-arvutus reporting.
  Task       16 on host RSL-arvutus reporting.
  Task       17 on host RSL-arvutus reporting.
  Task       18 on host RSL-arvutus reporting.
  Task       19 on host RSL-arvutus reporting.
  Task       20 on host RSL-arvutus reporting.
  Task       21 on host RSL-arvutus reporting.
  Task       22 on host RSL-arvutus reporting.
  Task       23 on host RSL-arvutus reporting.
  Task       24 on host RSL-arvutus reporting.
  Task       25 on host RSL-arvutus reporting.
  Task       26 on host RSL-arvutus reporting.
  Task       27 on host RSL-arvutus reporting.
  Task       28 on host RSL-arvutus reporting.
  Task       29 on host RSL-arvutus reporting.
  Task       30 on host RSL-arvutus reporting.
  Task       31 on host RSL-arvutus reporting.

  Memory overcommitment is allowed on your operating system.

  Obtaining array dimensions for all initial allocations:
  
  -----------------------------------------------------------------------
  Parsing control.in (first pass over file, find array dimensions only).
  The contents of control.in will be repeated verbatim below
  unless switched off by setting 'verbatim_writeout .false.' .
  in the first line of control.in .
  -----------------------------------------------------------------------
  
    xc              pbe
    relativistic    zora scalar 1.0e-12
    k_grid          8 8 12
  
    charge	  1.0
    output          Mulliken
  
  
  ################################################################################
  #
  #  FHI-aims code project
  #  VB, Fritz-Haber Institut, 2009
  #
  #  Suggested "light" defaults for Ti atom (to be pasted into control.in file)
  #  Be sure to double-check any results obtained with these settings for post-processing,
  #  e.g., with the "tight" defaults and larger basis sets.
  #
  ################################################################################
    species        Ti
  #     global species definitions
      nucleus             22
      mass                47.867
  #
      l_hartree           4
  #
      cut_pot             3.5          1.5  1.0
      basis_dep_cutoff    1e-4
  #
      radial_base         48 5.0
      radial_multiplier   1
      angular_grids       specified
        division   0.5171   50
        division   0.9824  110
        division   1.2917  194
        division   1.4940  302
  #      division   1.6934  434
  #      division   1.8425  590
  #      division   2.1901  770
  #      division   2.2896  974
  #      division   2.8244 1202
  #      outer_grid  974
        outer_grid  302
  ################################################################################
  #
  #  Definition of "minimal" basis
  #
  ################################################################################
  #     valence basis states
      valence      4  s   2.
      valence      3  p   6.
      valence      3  d   2.
  #     ion occupancy
      ion_occ      4  s   1.
      ion_occ      3  p   6.
      ion_occ      3  d   1.
  ################################################################################
  #
  #  Suggested additional basis functions. For production calculations,
  #  uncomment them one after another (the most important basis functions are
  #  listed first).
  #
  #  Constructed for dimers: 1.6 A, 1.85 A, 2.5 A, 3.25 A, 4.25 A
  #
  ################################################################################
  #  "First tier" - improvements: -396.25 meV to -19.41 meV
       hydro 4 f 8
       hydro 3 d 2.7
       ionic 4 p auto
  #     hydro 5 g 11.6
       ionic 4 s auto
  #  "Second tier" - improvements: -16.30 meV to -2.03 meV
  #     hydro 3 d 4.4
  #     hydro 6 h 16
  #     hydro 4 f 9.4
  #     hydro 4 p 4.5
  #     hydro 1 s 0.5
  #  "Third tier" - improvements: -6.28 meV to -0.37 meV
  #     hydro 4 d 6.4
  #     hydro 4 f 10
  #     hydro 5 g 12
  #     hydro 2 p 1.7
  #     hydro 6 h 16.4
  #     hydro 4 s 3.8
  #  Further basis functions: -0.45 meV and smaller improvements
  #     hydro 3 d 8.8
  #     hydro 5 p 18
  #     hydro 4 f 22.4
  #     hydro 5 f 7.2  # -0.16 meV
  #     hydro 3 d 2.1  # -0.11 meV
  #     hydro 5 g 7.4  # -0.09 meV
  
  
  ################################################################################
  #
  #  FHI-aims code project
  #  VB, Fritz-Haber Institut, 2009
  #
  #  Suggested "light" defaults for O atom (to be pasted into control.in file)
  #  Be sure to double-check any results obtained with these settings for post-processing,
  #  e.g., with the "tight" defaults and larger basis sets.
  #
  ################################################################################
    species        O
  #     global species definitions
      nucleus             8
      mass                15.9994
  #
      l_hartree           4
  #
      cut_pot             3.5  1.5  1.0
      basis_dep_cutoff    1e-4
  #
      radial_base         36 5.0
      radial_multiplier   1
       angular_grids specified
        division   0.2659   50
        division   0.4451  110
        division   0.6052  194
        division   0.7543  302
  #      division   0.8014  434
  #      division   0.8507  590
  #      division   0.8762  770
  #      division   0.9023  974
  #      division   1.2339 1202
  #      outer_grid 974
        outer_grid 302
  ################################################################################
  #
  #  Definition of "minimal" basis
  #
  ################################################################################
  #     valence basis states
      valence      2  s   2.
      valence      2  p   4.
  #     ion occupancy
      ion_occ      2  s   1.
      ion_occ      2  p   3.
  ################################################################################
  #
  #  Suggested additional basis functions. For production calculations,
  #  uncomment them one after another (the most important basis functions are
  #  listed first).
  #
  #  Constructed for dimers: 1.0 A, 1.208 A, 1.5 A, 2.0 A, 3.0 A
  #
  ################################################################################
  #  "First tier" - improvements: -699.05 meV to -159.38 meV
       hydro 2 p 1.8
       hydro 3 d 7.6
       hydro 3 s 6.4
  #  "Second tier" - improvements: -49.91 meV to -5.39 meV
  #     hydro 4 f 11.6
  #     hydro 3 p 6.2
  #     hydro 3 d 5.6
  #     hydro 5 g 17.6
  #     hydro 1 s 0.75
  #  "Third tier" - improvements: -2.83 meV to -0.50 meV
  #     ionic 2 p auto
  #     hydro 4 f 10.8
  #     hydro 4 d 4.7
  #     hydro 2 s 6.8
  #  "Fourth tier" - improvements: -0.40 meV to -0.12 meV
  #     hydro 3 p 5
  #     hydro 3 s 3.3
  #     hydro 5 g 15.6
  #     hydro 4 f 17.6
  #     hydro 4 d 14
  # Further basis functions - -0.08 meV and below
  #     hydro 3 s 2.1
  #     hydro 4 d 11.6
  #     hydro 3 p 16
  #     hydro 2 s 17.2
  ################################################################################
  #
  #  FHI-aims code project
  #  VB, Fritz-Haber Institut, 2009
  #
  #  Suggested "light" defaults for F atom (to be pasted into control.in file)
  #  Be sure to double-check any results obtained with these settings for post-processing,
  #  e.g., with the "tight" defaults and larger basis sets.
  #
  ################################################################################
    species        F
  #     global species definitions
      nucleus             9
      mass                18.9984032
  #
      l_hartree           4
  #
      cut_pot             3.5  1.5  1.0
      basis_dep_cutoff    1e-4
  #
      radial_base         37 5.0
      radial_multiplier   1
      angular_grids specified
        division   0.4014  110
        division   0.5291  194
        division   0.6019  302
  #      division   0.6814  434
  #      division   0.7989  590
  #      division   0.8965  770
  #      division   1.3427  974
  #      outer_grid   974
        outer_grid   302
  ################################################################################
  #
  #  Definition of "minimal" basis
  #
  ################################################################################
  #     valence basis states
      valence      2  s   2.
      valence      2  p   5.
  #     ion occupancy
      ion_occ      2  s   1.
      ion_occ      2  p   4.
  ################################################################################
  #
  #  Suggested additional basis functions. For production calculations,
  #  uncomment them one after another (the most important basis functions are
  #  listed first).
  #
  #  Constructed for dimers: 1.2 A, 1.418 A, 1.75 A, 2.25 A, 3.25 A
  #
  ################################################################################
  #  "First tier" - improvements: -149.44 meV to -45.88 meV
       hydro 2 p 1.7
       hydro 3 d 7.4
       hydro 3 s 6.8
  #  "Second tier" - improvements: -12.96 meV to -1.56 meV
  #     hydro 4 f 11.2
  #     ionic 2 p auto
  #     hydro 1 s 0.75
  #     hydro 4 d 8.8
  #     hydro 5 g 16.8
  #  "Third tier" - improvements: -0.58 meV to -0.05 meV
  #     hydro 3 p 6.2
  #     hydro 3 s 3.2
  #     hydro 4 f 9.6
  #     hydro 3 s 19.6
  #     hydro 4 d 8.6
  #     hydro 5 g 14.4
  # Further basis functions: -0.05 meV and below
  #     hydro 3 p 4.2
  
  -----------------------------------------------------------------------
  Completed first pass over input file control.in .
  -----------------------------------------------------------------------
  
  
  -----------------------------------------------------------------------
  Parsing geometry.in (first pass over file, find array dimensions only).
  The contents of geometry.in will be repeated verbatim below
  unless switched off by setting 'verbatim_writeout .false.' .
  in the first line of geometry.in .
  -----------------------------------------------------------------------
  
  #
  # This is the geometry file that corresponds to the current relaxation step.
  # If you do not want this file to be written, set the "write_restart_geometry" flag to .false.
  #  aims_uuid : 704D9F80-A97A-4D94-A235-1E89D88A13DD
  #
  lattice_vector      4.64306176      0.00012152     -0.00000000
  lattice_vector      0.00012172      4.64308665      0.00000000
  lattice_vector     -0.00000000      0.00000000      2.97288267
  atom_frac      -0.00000001      0.00000001     -0.00000000 Ti
  atom_frac       0.50000000      0.50000000      0.50000000 Ti
  atom_frac       0.30555823      0.30556717      0.00000000 F
  atom_frac       0.69444177      0.69443283      0.00000000 O
  atom_frac       0.19444622      0.80556274      0.50000000 O
  atom_frac       0.80555378      0.19443725      0.50000000 O
  #
  # What follows is the current estimated Hessian matrix constructed by the BFGS algorithm.
  # This is NOT the true Hessian matrix of the system.
  # If you do not want this information here, switch it off using the "hessian_to_restart_geometry" keyword.
  #
  trust_radius             0.8000000119
  hessian_file
  
  -----------------------------------------------------------------------
  Completed first pass over input file geometry.in .
  -----------------------------------------------------------------------
  

  Basic array size parameters:
  | Number of species                 :        3
  | Number of atoms                   :        6
  | Number of lattice vectors         :        3
  | Max. basis fn. angular momentum   :        3
  | Max. atomic/ionic basis occupied n:        4
  | Max. number of basis fn. types    :        3
  | Max. radial fns per species/type  :        7
  | Max. logarithmic grid size        :     1383
  | Max. radial integration grid size :       48
  | Max. angular integration grid size:      302
  | Max. angular grid division number :        8
  | Radial grid for Hartree potential :     1383
  | Number of spin channels           :        1

------------------------------------------------------------
          Reading file control.in.
------------------------------------------------------------
  XC: Using PBE gradient-corrected functionals.
  Scalar relativistic treatment of kinetic energy: ZORA.
  Threshold value for ZORA:   0.100000E-11
  Found k-point grid:         8         8        12
  Charged system requested: Charge =   0.100000E+01.
  Mulliken charge analysis will be performed and summarised to the main output.
  Full Mulliken charge analysis will be written to file 'Mulliken.out'.
 
  Reading configuration options for species Ti                  .
  | Found nuclear charge :  22.0000
  | Found atomic mass :    47.8670000000000      amu
  | Found l_max for Hartree potential  :   4
  | Found cutoff potl. onset [A], width [A], scale factor :    3.50000    1.50000    1.00000
  | Threshold for basis-dependent cutoff potential is   0.100000E-03
  | Found data for basic radial integration grid :    48 points, outermost radius =    5.000 A
  | Found multiplier for basic radial grid :   1
  | Found angular grid specification: user-specified.
  | Specified grid contains     5 separate shells.
  | Check grid settings after all constraints further below.
  | Found free-atom valence shell :  4 s   2.000
  | Found free-atom valence shell :  3 p   6.000
  | Found free-atom valence shell :  3 d   2.000
  | Found free-ion valence shell :  4 s   1.000
  | Found free-ion valence shell :  3 p   6.000
  | Found free-ion valence shell :  3 d   1.000
  | Found hydrogenic basis function :  4 f   8.000
  | Found hydrogenic basis function :  3 d   2.700
  | Found ionic basis function :  4 p , default cutoff radius.
  | Found ionic basis function :  4 s , default cutoff radius.
 | Encountered keyword species, ending the description of species Ti                  .
  Species Ti                  : Missing cutoff potential type.
  Defaulting to exp(1/x)/(1-x)^2 type cutoff potential.
  Species Ti: No 'logarithmic' tag. Using default grid for free atom:
  | Default logarithmic grid data [bohr] : 0.1000E-03 0.1000E+03 0.1012E+01
  | Will include ionic basis functions of  2.0-fold positive Ti                   ion.
  Species Ti: On-site basis accuracy parameter (for Gram-Schmidt orthonormalisation) not specified.
  Using default value basis_acc =  0.1000000E-03.
  Species Ti                  : Using default innermost maximum threshold i_radial=  2 for radial functions.
  Species Ti                  : Default cutoff onset for free atom density etc. : 0.35000000E+01 AA.
  Species Ti                  : Basic radial grid will be enhanced according to radial_multiplier =   1, to contain    48 grid points.
 
  Reading configuration options for species O                   .
  | Found nuclear charge :   8.0000
  | Found atomic mass :    15.9994000000000      amu
  | Found l_max for Hartree potential  :   4
  | Found cutoff potl. onset [A], width [A], scale factor :    3.50000    1.50000    1.00000
  | Threshold for basis-dependent cutoff potential is   0.100000E-03
  | Found data for basic radial integration grid :    36 points, outermost radius =    5.000 A
  | Found multiplier for basic radial grid :   1
  | Found angular grid specification: user-specified.
  | Specified grid contains     5 separate shells.
  | Check grid settings after all constraints further below.
  | Found free-atom valence shell :  2 s   2.000
  | Found free-atom valence shell :  2 p   4.000
  | Found free-ion valence shell :  2 s   1.000
  | Found free-ion valence shell :  2 p   3.000
  | Found hydrogenic basis function :  2 p   1.800
  | Found hydrogenic basis function :  3 d   7.600
  | Found hydrogenic basis function :  3 s   6.400
 | Encountered keyword species, ending the description of species O                   .
  Species O                   : Missing cutoff potential type.
  Defaulting to exp(1/x)/(1-x)^2 type cutoff potential.
  Species O : No 'logarithmic' tag. Using default grid for free atom:
  | Default logarithmic grid data [bohr] : 0.1000E-03 0.1000E+03 0.1012E+01
  Species O : On-site basis accuracy parameter (for Gram-Schmidt orthonormalisation) not specified.
  Using default value basis_acc =  0.1000000E-03.
  Species O                   : Using default innermost maximum threshold i_radial=  2 for radial functions.
  Species O                   : Default cutoff onset for free atom density etc. : 0.35000000E+01 AA.
  Species O                   : Basic radial grid will be enhanced according to radial_multiplier =   1, to contain    36 grid points.
 
  Reading configuration options for species F                   .
  | Found nuclear charge :   9.0000
  | Found atomic mass :    18.9984032000000      amu
  | Found l_max for Hartree potential  :   4
  | Found cutoff potl. onset [A], width [A], scale factor :    3.50000    1.50000    1.00000
  | Threshold for basis-dependent cutoff potential is   0.100000E-03
  | Found data for basic radial integration grid :    37 points, outermost radius =    5.000 A
  | Found multiplier for basic radial grid :   1
  | Found angular grid specification: user-specified.
  | Specified grid contains     4 separate shells.
  | Check grid settings after all constraints further below.
  | Found free-atom valence shell :  2 s   2.000
  | Found free-atom valence shell :  2 p   5.000
  | Found free-ion valence shell :  2 s   1.000
  | Found free-ion valence shell :  2 p   4.000
  | Found hydrogenic basis function :  2 p   1.700
  | Found hydrogenic basis function :  3 d   7.400
  | Found hydrogenic basis function :  3 s   6.800
  Species F                   : Missing cutoff potential type.
  Defaulting to exp(1/x)/(1-x)^2 type cutoff potential.
  Species F : No 'logarithmic' tag. Using default grid for free atom:
  | Default logarithmic grid data [bohr] : 0.1000E-03 0.1000E+03 0.1012E+01
  Species F : On-site basis accuracy parameter (for Gram-Schmidt orthonormalisation) not specified.
  Using default value basis_acc =  0.1000000E-03.
  Species F                   : Using default innermost maximum threshold i_radial=  2 for radial functions.
  Species F                   : Default cutoff onset for free atom density etc. : 0.35000000E+01 AA.
  Species F                   : Basic radial grid will be enhanced according to radial_multiplier =   1, to contain    37 grid points.
 
  Finished reading input file 'control.in'.
 
------------------------------------------------------------


------------------------------------------------------------
          Reading geometry description geometry.in.
------------------------------------------------------------
 * Large trust radius value found - resetting to the current value of max_atomic_move,      0.20000000 A.
  Found keyword 'hessian_file', indicating that this is the continuation of a structure optimization.
  However, the control.in file does not request the geometry to be optimized.
  Ignoring the request for a file 'hessian.aims' to be present.
  | The smallest distance between any two atoms is         1.95947562 AA.
  | The first atom of this pair is atom number                      1 .
  | The second atom of this pair is atom number                     6 .
  | Wigner-Seitz cell of the first atom image           0     0     0 .
  | (The Wigner-Seitz cell of the second atom is 0 0 0  by definition.)

  Symmetry information by spglib:
  | Precision set to  0.1E-04
  | Number of Operations  : 2
  | Space group           : 6
  | International         : Pm      /op
  | Schoenflies           : Cs^1
  Input structure read successfully.
  The structure contains        6 atoms,  and a total of         76.000 electrons.

  Input geometry:
  | Unit cell:
  |        4.64306176        0.00012152        0.00000000
  |        0.00012172        4.64308665        0.00000000
  |        0.00000000        0.00000000        2.97288267
  | Atomic structure:
  |       Atom                x [A]            y [A]            z [A]
  |    1: Species Ti           -0.00000005        0.00000005        0.00000000
  |    2: Species Ti            2.32159174        2.32160409        1.48644134
  |    3: Species F             1.41876293        1.41881198        0.00000000
  |    4: Species O             3.22442055        3.22439619        0.00000000
  |    5: Species O             0.90292386        3.74032123        1.48644134
  |    6: Species O             3.74025962        0.90288689        1.48644134

  Lattice parameters for 3D lattice (in Angstroms) :     4.643062    4.643087    2.972883
  Angle(s) between unit vectors (in degrees)       :    90.000000   90.000000   89.996998


  Quantities derived from the lattice vectors (in Angstrom^-1):
  | Reciprocal lattice vector 1:  1.353242 -0.000035  0.000000
  | Reciprocal lattice vector 2: -0.000035  1.353235  0.000000
  | Reciprocal lattice vector 3:  0.000000  0.000000  2.113499
  | Unit cell volume                               :   0.640898E+02  Angstrom^3

  Fractional coordinates:
                         L1                L2                L3
       atom_frac        -0.00000001        0.00000001        0.00000000  Ti
       atom_frac         0.50000000        0.50000000        0.50000000  Ti
       atom_frac         0.30555823        0.30556717        0.00000000  F
       atom_frac         0.69444177        0.69443283        0.00000000  O
       atom_frac         0.19444622        0.80556274        0.50000000  O
       atom_frac         0.80555378        0.19443725        0.50000000  O

  Slab Identifier: This seems to be a bulk system.
 
  Finished reading input file 'geometry.in'.
 

 
  Consistency checks for stacksize environment parameter are next.
 
  | Maximum stacksize for task 0: unlimited
  | Maximum stacksize for task 1: unlimited
  | Maximum stacksize for task 2: unlimited
  | Maximum stacksize for task 3: unlimited
  | Maximum stacksize for task 4: unlimited
  | Maximum stacksize for task 5: unlimited
  | Maximum stacksize for task 6: unlimited
  | Maximum stacksize for task 7: unlimited
  | Maximum stacksize for task 8: unlimited
  | Maximum stacksize for task 9: unlimited
  | Maximum stacksize for task 10: unlimited
  | Maximum stacksize for task 11: unlimited
  | Maximum stacksize for task 12: unlimited
  | Maximum stacksize for task 13: unlimited
  | Maximum stacksize for task 14: unlimited
  | Maximum stacksize for task 15: unlimited
  | Maximum stacksize for task 16: unlimited
  | Maximum stacksize for task 17: unlimited
  | Maximum stacksize for task 18: unlimited
  | Maximum stacksize for task 19: unlimited
  | Maximum stacksize for task 20: unlimited
  | Maximum stacksize for task 21: unlimited
  | Maximum stacksize for task 22: unlimited
  | Maximum stacksize for task 23: unlimited
  | Maximum stacksize for task 24: unlimited
  | Maximum stacksize for task 25: unlimited
  | Maximum stacksize for task 26: unlimited
  | Maximum stacksize for task 27: unlimited
  | Maximum stacksize for task 28: unlimited
  | Maximum stacksize for task 29: unlimited
  | Maximum stacksize for task 30: unlimited
  | Maximum stacksize for task 31: unlimited
  | Current stacksize for task 0: unlimited
  | Current stacksize for task 1: unlimited
  | Current stacksize for task 2: unlimited
  | Current stacksize for task 3: unlimited
  | Current stacksize for task 4: unlimited
  | Current stacksize for task 5: unlimited
  | Current stacksize for task 6: unlimited
  | Current stacksize for task 7: unlimited
  | Current stacksize for task 8: unlimited
  | Current stacksize for task 9: unlimited
  | Current stacksize for task 10: unlimited
  | Current stacksize for task 11: unlimited
  | Current stacksize for task 12: unlimited
  | Current stacksize for task 13: unlimited
  | Current stacksize for task 14: unlimited
  | Current stacksize for task 15: unlimited
  | Current stacksize for task 16: unlimited
  | Current stacksize for task 17: unlimited
  | Current stacksize for task 18: unlimited
  | Current stacksize for task 19: unlimited
  | Current stacksize for task 20: unlimited
  | Current stacksize for task 21: unlimited
  | Current stacksize for task 22: unlimited
  | Current stacksize for task 23: unlimited
  | Current stacksize for task 24: unlimited
  | Current stacksize for task 25: unlimited
  | Current stacksize for task 26: unlimited
  | Current stacksize for task 27: unlimited
  | Current stacksize for task 28: unlimited
  | Current stacksize for task 29: unlimited
  | Current stacksize for task 30: unlimited
  | Current stacksize for task 31: unlimited
 
  Consistency checks for the contents of control.in are next.
 
  MPI_IN_PLACE appears to work with this MPI implementation.
  | Keeping use_mpi_in_place .true. (see manual).
  Target number of points in a grid batch is not set. Defaulting to  100
  Method for grid partitioning is not set. Defaulting to parallel hash+maxmin partitioning.
  Batch size limit is not set. Defaulting to    200
  By default, will store active basis functions for each batch.
  If in need of memory, prune_basis_once .false. can be used to disable this option.
  communication_type for Hartree potential was not specified.
  Defaulting to calc_hartree .
  Defaulting to Pulay charge density mixer.
  Pulay mixer: Number of relevant iterations not set.
  Defaulting to    8 iterations.
  Pulay mixer: Number of initial linear mixing iterations not set.
  Defaulting to    0 iterations.
  Work space size for distributed Hartree potential not set.
  Defaulting to   0.200000E+03 MB.
  Mixing parameter for charge density mixing has not been set.
  Using default: charge_mix_param =     0.0500.
  The mixing parameter will be adjusted in iteration number     2 of each s.c.f. cycle (i.e., each geometry step).
  Algorithm-dependent basis array size parameters:
  | n_max_pulay                         :        8
  Maximum number of self-consistency iterations not provided.
  Presetting  1000 iterations.
  Presetting      1001 iterations before the initial mixing cycle
  is restarted anyway using the sc_init_iter criterion / keyword.
  Presetting a factor      1.000 between actual scf density residual
  and density convergence criterion sc_accuracy_rho below which sc_init_iter
  takes no effect.
 * No s.c.f. convergence criteria (sc_accuracy_*) were provided in control.in.
 * The run will proceed with a reasonable default guess, but please check whether.
 * the s.c.f. cycles seem to take too much or too little time.
  Calculation of forces was not defined in control.in. No forces will be calculated.
  Geometry relaxation not requested: no relaxation will be performed.
 * Notice: The s.c.f. convergence criterion sc_accuracy_rho was not provided.
 * We used to stop in this case, and ask the user to provide reasonable
 * scf convergence criteria. However, this led some users to employ criteria
 * that led to extremely long run times, e.g., for simple relaxation.
 * We now preset a default value for sc_accuracy_rho if it is not set.
 * You may still wish to check if this setting is too tight or too loose for your needs.
 * Based on n_atoms and forces and force-correction status, FHI-aims chose sc_accuracy_rho =  0.100000E-05 .
  No accuracy limit for integral partition fn. given. Defaulting to  0.1000E-14.
  No threshold value for u(r) in integrations given. Defaulting to  0.1000E-05.
  No occupation type (smearing scheme) given. Defaulting to Gaussian broadening, width =  0.1000E-01 eV.
  The width will be adjusted in iteration number     2 of each s.c.f. cycle (i.e., each geometry step).
  No accuracy for occupation numbers given. Defaulting to  0.1000E-12.
  No threshold value for occupation numbers given. Defaulting to  0.0000E+00.
  No accuracy for fermi level given. Defaulting to  0.1000E-19.
  Maximum # of iterations to find E_F not set. Defaulting to  200.
  Preferred method for the eigenvalue solver ('KS_method') not specified in 'control.in'.
  Defaulting to serial version, LAPACK (via ELSI), since more k-points than CPUs available.
  Will not use alltoall communication since running on < 1024 CPUs.
  Threshold for basis singularities not set.
  Default threshold for basis singularities:  0.1000E-04
  partition_type (choice of integration weights) for integrals was not specified.
  | Using a version of the partition function of Stratmann and coworkers ('stratmann_sparse').
  | At each grid point, the set of atoms used to build the partition table is smoothly restricted to
  | only those atoms whose free-atom density would be non-zero at that grid point.
  Partitioning for Hartree potential was not defined. Using partition_type for integrals.
  | Adjusted default value of keyword multip_moments_threshold to:       0.10000000E-11
  | This value may affect high angular momentum components of the Hartree potential in periodic systems.
  Spin handling was not defined in control.in. Defaulting to unpolarized case.
  No q(lm)/r^(l+1) cutoff set for long-range Hartree potential.
  | Using default value of  0.100000E-09 .
  | Verify using the multipole_threshold keyword.
  Defaulting to new monopole extrapolation.
  Density update method: automatic selection selected.
  Using density matrix based charge density update.
  Using density matrix based charge density update.
  Using packed matrix style: index .
  Defaulting to use time-reversal symmetry for k-point grid.
  Charge integration errors on the 3D integration grid will be compensated
  by explicit normalization and distribution of residual charges.
  Use the "compensate_multipole_errors" flag to change this behaviour.
  Set 'collect_eigenvectors' to be '.true.' for all serial calculations. This is mandatory.
  Set 'collect_eigenvectors' to be '.true.' for KS_method lapack_fast and serial.
  Found potential conflicts with setting 'use_local_index' for this calculation. Will not set it.
 
  Consistency checks for the contents of geometry.in are next.
 

  Range separation radius for Ewald summation (hartree_convergence_parameter):      3.05697894 bohr.
 * Warning: Initial charge and total charge of the system are inconsistent.
 * Selected charge in control.in:     1.0000* Sum of initial charges in geometry.in:     0.0000
  Number of empty states per atom not set in control.in - providing a guess from actual geometry.
  | Total number of empty states used during s.c.f. cycle:       23
  If you use a very high smearing, use empty_states (per atom!) in control.in to increase this value.

  Structure-dependent array size parameters: 
  | Maximum number of distinct radial functions  :       23
  | Maximum number of basis functions            :      118
  | Number of Kohn-Sham states (occupied + empty):       61
------------------------------------------------------------
  After read_input_data [GB]:    406.86

  Performing system and environment tests:
  *** Environment variable OMP_NUM_THREADS is not set
  *** For performance reasons you might want to set it to 1
  | Checking for ScaLAPACK...
  | Testing pdtran()...
  | All pdtran() tests passed.
  After prepare_system [GB]:    406.72

------------------------------------------------------------
          Preparing all fixed parts of the calculation.
------------------------------------------------------------
  Determining machine precision:
    2.225073858507201E-308
  Setting up grids for atomic and cluster calculations.

  Creating wave function, potential, and density for free atoms.
  Runtime choices for atomic solver:
  | atomic solver xc        : PBE
  | compute density gradient: 1
  | compute kinetic density : F

  Species: Ti

  List of occupied orbitals and eigenvalues:
    n    l              occ      energy [Ha]    energy [eV]
    1    0           2.0000      -179.959082     -4896.9358
    2    0           2.0000       -19.727662      -536.8170
    3    0           2.0000        -2.283029       -62.1244
    4    0           2.0000        -0.148384        -4.0377
    2    1           6.0000       -16.317278      -444.0157
    3    1           6.0000        -1.409348       -38.3503
    3    2           2.0000        -0.139340        -3.7916


  Species: O

  List of occupied orbitals and eigenvalues:
    n    l              occ      energy [Ha]    energy [eV]
    1    0           2.0000       -18.926989      -515.0296
    2    0           2.0000        -0.880247       -23.9527
    2    1           4.0000        -0.331514        -9.0210


  Species: F

  List of occupied orbitals and eigenvalues:
    n    l              occ      energy [Ha]    energy [eV]
    1    0           2.0000       -24.399611      -663.9472
    2    0           2.0000        -1.098702       -29.8972
    2    1           5.0000        -0.408210       -11.1080


  Adding cutoff potential to free-atom effective potential.
  Creating fixed part of basis set: Ionic, confined, hydrogenic.
 
  Ti                   ion:

  List of free ionic orbitals and eigenvalues:
    n    l      energy [Ha]    energy [eV]
    1    0      -180.819616     -4920.3521
    2    0       -20.608761      -560.7929
    3    0        -3.115729       -84.7833
    4    0        -0.697188       -18.9715
    2    1       -17.196209      -467.9327
    3    1        -2.231296       -60.7167
    3    2        -0.911363       -24.7995


  List of ionic basis orbitals and eigenvalues:
    n    l      energy [Ha]    energy [eV]    outer radius [A]
    4    1        -0.517739       -14.0884       4.592117
    4    0        -0.696824       -18.9615       4.536321

 
  Ti                   hydrogenic:
 
  List of hydrogenic basis orbitals: 
    n    l      effective z      eigenvalue [eV]  inner max. [A]     outer max. [A]     outer radius [A]   
    4    3         8.000000       -54.4222           1.059019           1.059019           4.267343
    3    2         2.700000       -10.7798           1.726925           1.726925           4.592117
 
 
  O                    hydrogenic:
 
  List of hydrogenic basis orbitals: 
    n    l      effective z      eigenvalue [eV]  inner max. [A]     outer max. [A]     outer radius [A]   
    2    1         1.800000       -10.9749           1.164242           1.164242           4.578029
    3    2         7.600000       -87.3180           0.624125           0.624125           3.251020
    3    0         6.400000       -61.9207           0.061167           1.081902           4.001998
 
 
  F                    hydrogenic:
 
  List of hydrogenic basis orbitals: 
    n    l      effective z      eigenvalue [eV]  inner max. [A]     outer max. [A]     outer radius [A]   
    2    1         1.700000        -9.7616           1.243167           1.243167           4.598524
    3    2         7.400000       -82.7828           0.642437           0.642437           3.305741
    3    0         6.800000       -69.9026           0.057798           1.022307           3.781556
 
  Creating atomic-like basis functions for current effective potential.

  Species Ti                  :

  List of atomic basis orbitals and eigenvalues:
    n    l      energy [Ha]    energy [eV]    outer radius [A]
    1    0      -179.959082     -4896.9358       0.490254
    2    0       -19.727662      -536.8170       1.491292
    3    0        -2.283029       -62.1244       4.014314
    4    0        -0.148384        -4.0377       4.592117
    2    1       -16.317278      -444.0157       1.585290
    3    1        -1.409348       -38.3503       4.267343
    3    2        -0.139340        -3.7916       4.536321


  Species O                   :

  List of atomic basis orbitals and eigenvalues:
    n    l      energy [Ha]    energy [eV]    outer radius [A]
    1    0       -18.926989      -515.0296       1.415765
    2    0        -0.880247       -23.9527       4.413171
    2    1        -0.331514        -9.0210       4.522403


  Species F                   :

  List of atomic basis orbitals and eigenvalues:
    n    l      energy [Ha]    energy [eV]    outer radius [A]
    1    0       -24.399611      -663.9472       1.258458
    2    0        -1.098702       -29.8972       4.325857
    2    1        -0.408210       -11.1080       4.487453

  Assembling full basis from fixed parts.
  | Species Ti :   atomic orbital   1 s accepted.
  | Species Ti :   atomic orbital   2 s accepted.
  | Species Ti :   atomic orbital   3 s accepted.
  | Species Ti :    ionic orbital   4 s accepted.
  | Species Ti :   atomic orbital   4 s accepted.
  | Species Ti :   atomic orbital   2 p accepted.
  | Species Ti :   atomic orbital   3 p accepted.
  | Species Ti :    ionic orbital   4 p accepted.
  | Species Ti :   atomic orbital   3 d accepted.
  | Species Ti :    hydro orbital   3 d accepted.
  | Species Ti :    hydro orbital   4 f accepted.
  | Species O :   atomic orbital   1 s accepted.
  | Species O :    hydro orbital   3 s accepted.
  | Species O :   atomic orbital   2 s accepted.
  | Species O :   atomic orbital   2 p accepted.
  | Species O :    hydro orbital   2 p accepted.
  | Species O :    hydro orbital   3 d accepted.
  | Species F :   atomic orbital   1 s accepted.
  | Species F :    hydro orbital   3 s accepted.
  | Species F :   atomic orbital   2 s accepted.
  | Species F :   atomic orbital   2 p accepted.
  | Species F :    hydro orbital   2 p accepted.
  | Species F :    hydro orbital   3 d accepted.
 
  Basis size parameters after reduction:
  | Total number of radial functions:       23
  | Total number of basis functions :      118
 
  Per-task memory consumption for arrays in subroutine allocate_ext:
  |           6.111832MB.
  Testing on-site integration grid accuracy.
  |  Species  Function  <phi|h_atom|phi> (log., in eV)  <phi|h_atom|phi> (rad., in eV)
           1        1              -4896.9357674450              -4896.9322838106
           1        2               -536.8170048508               -536.8169722776
           1        3                -62.1243896260                -62.1243889401
           1        4                 -3.2653235630                 -3.2692838824
           1        5                  6.7987747276                  6.5460721871 ***
           1        6               -444.0157161949               -444.0157165643
           1        7                -38.3503235548                -38.3503234985
           1        8                  0.2923930877                  0.2745948114
           1        9                 -3.7933400649                 -3.7959244171
           1       10                  6.3288803616                  6.2510614935 ***
           1       11                 27.8451455747                 27.8452636415
           2       12               -515.0295626295               -515.0294562869
           2       13                 15.1698434419                 15.1699322205
           2       14                -21.6038822678                -21.6039118108
           2       15                 -9.0211123393                 -9.0212703513
           2       16                  8.3047696391                  8.2854840999
           2       17                 45.8428042125                 45.8427461223
           3       18               -663.9471986398               -663.9470363156
           3       19                 16.8514011578                 16.8512525340
           3       20                -28.4490593856                -28.4490661455
           3       21                -11.1080115307                -11.1080620174
           3       22                  7.1940182175                  7.1685154136
           3       23                 44.8544281765                 44.8543763625
 * Note: Onsite integrals marked "***" above are less accurate than
 * onsite_accuracy_threshold =    0.03000 eV. Usually, this is harmless.
 * When in doubt, tighten the "radial" and/or "radial_multiplier" flags to check.

  Preparing densities etc. for the partition functions (integrals / Hartree potential).

  Preparations completed.
  max(cpu_time)          :      0.523 s.
  Wall clock time (cpu1) :      0.519 s.
------------------------------------------------------------
  After prepare_scf [GB]:    405.13

  Initializing index lists of integration centers etc. from given atomic structure:
  Mapping all atomic coordinates to central unit cell.

  Initializing the k-points
  Using symmetry for reducing the k-points
  | k-points reduced from:      768 to      388
  | Number of k-points                             :       388
  The eigenvectors in the calculations are COMPLEX.
  | K-points in task   0:        12
  | K-points in task   1:        13
  | K-points in task   2:        13
  | K-points in task   3:        13
  | K-points in task   4:        13
  | K-points in task   5:        12
  | K-points in task   6:        12
  | K-points in task   7:        12
  | K-points in task   8:        12
  | K-points in task   9:        12
  | K-points in task  10:        12
  | K-points in task  11:        12
  | K-points in task  12:        12
  | K-points in task  13:        12
  | K-points in task  14:        12
  | K-points in task  15:        12
  | K-points in task  16:        12
  | K-points in task  17:        12
  | K-points in task  18:        12
  | K-points in task  19:        12
  | K-points in task  20:        12
  | K-points in task  21:        12
  | K-points in task  22:        12
  | K-points in task  23:        12
  | K-points in task  24:        12
  | K-points in task  25:        12
  | K-points in task  26:        12
  | K-points in task  27:        12
  | K-points in task  28:        12
  | K-points in task  29:        12
  | K-points in task  30:        12
  | K-points in task  31:        12
  | Number of basis functions in the Hamiltonian integrals :      2845
  | Number of basis functions in a single unit cell        :       118
  | Number of centers in hartree potential         :      1180
  | Number of centers in hartree multipole         :       743
  | Number of centers in electron density summation:       536
  | Number of centers in basis integrals           :       579
  | Number of centers in integrals                 :       201
  | Number of centers in hamiltonian               :       544
  | Consuming        776 KiB for k_phase.
  | Number of super-cells (origin) [n_cells]                     :         891
  | Number of super-cells (after PM_index) [n_cells]             :         128
  | Number of super-cells in hamiltonian [n_cells_in_hamiltonian]:         128
  | Size of matrix packed + index [n_hamiltonian_matrix_size] :      266793
  After initialize_bc_dependent_lists [GB]:    405.14

------------------------------------------------------------
          Begin self-consistency loop: Initialization.

          Date     :  20250120, Time     :  140722.672
------------------------------------------------------------
  Available memory per node after initialize_hartree_non_periodic_ewald [GB]:    405.14
  | Estimated reciprocal-space cutoff momentum G_max:         3.08889186 bohr^-1 .
  | Reciprocal lattice points for long-range Hartree potential:     208
  Available memory per node after initialize_recip_hartree_potential [GB]:    405.14
  Available memory per node after initialize_scalapack [GB]:    405.14
  Available memory per node after aims_elsi_init_scf [GB]:    405.14
  Available memory per node after initialize_fixed_grids [GB]:    405.14
  Partitioning the integration grid into batches with parallel hashing+maxmin method.
  | Number of batches:      550
  | Maximal batch size:     117
  | Minimal batch size:      51
  | Average batch size:      71.960
  | Standard deviation of batch sizes:      19.152

  Integration load balanced across    32 MPI tasks.
  Work distribution over tasks is as follows:
  Task     0 has       1268 integration points.
  Task     1 has       1270 integration points.
  Task     2 has       1238 integration points.
  Task     3 has       1277 integration points.
  Task     4 has       1207 integration points.
  Task     5 has       1207 integration points.
  Task     6 has       1228 integration points.
  Task     7 has       1248 integration points.
  Task     8 has       1234 integration points.
  Task     9 has       1207 integration points.
  Task    10 has       1230 integration points.
  Task    11 has       1272 integration points.
  Task    12 has       1255 integration points.
  Task    13 has       1212 integration points.
  Task    14 has       1243 integration points.
  Task    15 has       1205 integration points.
  Task    16 has       1267 integration points.
  Task    17 has       1273 integration points.
  Task    18 has       1244 integration points.
  Task    19 has       1209 integration points.
  Task    20 has       1254 integration points.
  Task    21 has       1215 integration points.
  Task    22 has       1272 integration points.
  Task    23 has       1238 integration points.
  Task    24 has       1238 integration points.
  Task    25 has       1233 integration points.
  Task    26 has       1204 integration points.
  Task    27 has       1251 integration points.
  Task    28 has       1204 integration points.
  Task    29 has       1236 integration points.
  Task    30 has       1209 integration points.
  Task    31 has       1230 integration points.
  Available memory per node after partition_grid [GB]:    405.14
  Initializing partition tables, free-atom densities, potentials, etc. across the integration grid (initialize_grid_storage).
  | initialize_grid_storage: Actual outermost partition radius vs. multipole_radius_free
  | (-- VB: in principle, multipole_radius_free should be larger, hence this output)
  | Species        1: Confinement radius =              4.999999999999999 AA, multipole_radius_free =              5.002391649902235 AA.
  | Species        1: outer_partition_radius set to              5.002391649902235 AA .
  | Species        2: Confinement radius =              4.999999999999999 AA, multipole_radius_free =              5.048384829883283 AA.
  | Species        2: outer_partition_radius set to              5.048384829883283 AA .
  | Species        3: Confinement radius =              4.999999999999999 AA, multipole_radius_free =              5.009370088163274 AA.
  | Species        3: outer_partition_radius set to              5.009370088163274 AA .
  | The sparse table of interatomic distances needs       1445.87 kbyte instead of      2681.93 kbyte of memory.
  | Net number of integration points:    39578
  | of which are non-zero points    :    32750
  | Numerical average free-atom electrostatic potential    :    -17.56445915 eV
  Available memory per node after initialize_grid_storage_p1 [GB]:    405.13
  Renormalizing the initial density to the exact electron count on the 3D integration grid.
  | Initial density: Formal number of electrons (from input files) :      77.0000000000
  | Integrated number of electrons on 3D grid     :      77.0006536106
  | Charge integration error                      :       0.0006536106
  | Normalization factor for density and gradient :       0.9999915116
  Renormalizing the free-atom superposition density to the exact electron count on the 3D integration grid.
  | Formal number of electrons (from input files) :      76.0000000000
  | Integrated number of electrons on 3D grid     :      77.0006536106
  | Charge integration error                      :       0.0006536106
  | Normalization factor for density and gradient :       0.9999915116
  Obtaining max. number of non-zero basis functions in each batch (get_n_compute_maxes).
  | Maximal number of non-zero basis functions:      829 in task     0
  | Maximal number of non-zero basis functions:      812 in task     1
  | Maximal number of non-zero basis functions:      817 in task     2
  | Maximal number of non-zero basis functions:      816 in task     3
  | Maximal number of non-zero basis functions:      804 in task     4
  | Maximal number of non-zero basis functions:      801 in task     5
  | Maximal number of non-zero basis functions:      809 in task     6
  | Maximal number of non-zero basis functions:      774 in task     7
  | Maximal number of non-zero basis functions:      811 in task     8
  | Maximal number of non-zero basis functions:      824 in task     9
  | Maximal number of non-zero basis functions:      806 in task    10
  | Maximal number of non-zero basis functions:      816 in task    11
  | Maximal number of non-zero basis functions:      792 in task    12
  | Maximal number of non-zero basis functions:      807 in task    13
  | Maximal number of non-zero basis functions:      805 in task    14
  | Maximal number of non-zero basis functions:      793 in task    15
  | Maximal number of non-zero basis functions:      803 in task    16
  | Maximal number of non-zero basis functions:      828 in task    17
  | Maximal number of non-zero basis functions:      816 in task    18
  | Maximal number of non-zero basis functions:      824 in task    19
  | Maximal number of non-zero basis functions:      819 in task    20
  | Maximal number of non-zero basis functions:      816 in task    21
  | Maximal number of non-zero basis functions:      824 in task    22
  | Maximal number of non-zero basis functions:      780 in task    23
  | Maximal number of non-zero basis functions:      814 in task    24
  | Maximal number of non-zero basis functions:      824 in task    25
  | Maximal number of non-zero basis functions:      808 in task    26
  | Maximal number of non-zero basis functions:      809 in task    27
  | Maximal number of non-zero basis functions:      790 in task    28
  | Maximal number of non-zero basis functions:      809 in task    29
  | Maximal number of non-zero basis functions:      816 in task    30
  | Maximal number of non-zero basis functions:      836 in task    31
  Available memory per node after get_n_compute_maxes_p1 [GB]:    405.13
  Allocating        1.318 MB for KS_eigenvector_complex
  Available memory per node after allocate_matrices [GB]:    405.13
  Available memory per node after init_comm_sparse_local_matrix_scalapack [GB]:    405.13
  Integrating Hamiltonian matrix: batch-based integration.
  Time summed over all CPUs for integration: real work       12.499 s, elapsed       49.138 s => Consider using load balancing!
  Available memory per node after integrate hamiltonian matrix [GB]:    405.07
  Integrating overlap matrix.
  Time summed over all CPUs for integration: real work        3.570 s, elapsed       17.404 s
  Available memory per node after integrate ovlp matrix [GB]:    405.07
  Available memory per node after ASI_callbacks invoke [GB]:    405.07
  Available memory per node after save_overlap_scalapack [GB]:    405.07

  Updating Kohn-Sham eigenvalues and eigenvectors using ELSI and the (modified) LAPACK eigensolver.
  Singularity check in k-point 32, task 0 (analysis for other k-points/tasks may follow below):
  Overlap matrix is not singular
  | Lowest and highest eigenvalues :  0.8057E-03,  0.7631E+01
  Finished singularity check of overlap matrix
  | Time :     0.003 s
  Starting LAPACK eigensolver
  Finished Cholesky decomposition
  | Time :     0.000 s
  Finished transformation to standard eigenproblem
  | Time :     0.002 s
  Finished solving standard eigenproblem
  | Time :     0.002 s
  Finished back-transformation of eigenvectors
  | Time :     0.001 s

  Obtaining occupation numbers and electronic chemical potential using ELSI.
  | Note that, for insulating systems, the printed 'chemical potential' value is not uniquely defined.
  | It can be anywhere in the energy gap, as long as it correctly separates occupied and unoccupied states.
  | In systems with a gap, the physically relevant chemical potential is the VBM or HOMO.

  | Chemical potential (Fermi level):   -11.41986634 eV
  Available memory per node after advance_KS_solution [GB]:    405.07
  Writing Kohn-Sham eigenvalues.
  K-point:       1 at    0.000000    0.000000    0.000000 (in units of recip. lattice)

  State    Occupation    Eigenvalue [Ha]    Eigenvalue [eV]
      1       2.00000        -179.961840        -4897.01084
      2       2.00000        -179.961085        -4896.99028
      3       2.00000         -24.506638         -666.85955
      4       2.00000         -19.737385         -537.08158
      5       2.00000         -19.736579         -537.05965
      6       2.00000         -19.034569         -517.95697
      7       2.00000         -19.034564         -517.95685
      8       2.00000         -19.034564         -517.95685
      9       2.00000         -16.327578         -444.29601
     10       2.00000         -16.327265         -444.28749
     11       2.00000         -16.327200         -444.28572
     12       2.00000         -16.326733         -444.27301
     13       2.00000         -16.326483         -444.26621
     14       2.00000         -16.326439         -444.26502
     15       2.00000          -2.308390          -62.81450
     16       2.00000          -2.306740          -62.76960
     17       2.00000          -1.451791          -39.50525
     18       2.00000          -1.448767          -39.42296
     19       2.00000          -1.440806          -39.20632
     20       2.00000          -1.438307          -39.13833
     21       2.00000          -1.437610          -39.11937
     22       2.00000          -1.437410          -39.11392
     23       2.00000          -1.234149          -33.58291
     24       2.00000          -1.054740          -28.70093
     25       2.00000          -1.021781          -27.80407
     26       2.00000          -1.004958          -27.34629
     27       2.00000          -0.610455          -16.61132
     28       2.00000          -0.571198          -15.54308
     29       2.00000          -0.568701          -15.47514
     30       2.00000          -0.564696          -15.36615
     31       2.00000          -0.514162          -13.99107
     32       2.00000          -0.509513          -13.86456
     33       2.00000          -0.508166          -13.82789
     34       2.00000          -0.485767          -13.21840
     35       2.00000          -0.456077          -12.41047
     36       2.00000          -0.449898          -12.24235
     37       2.00000          -0.446103          -12.13907
     38       2.00000          -0.421318          -11.46464
     39       0.00000          -0.193403           -5.26277
     40       0.00000          -0.185125           -5.03750
     41       0.00000          -0.158084           -4.30168
     42       0.00000          -0.153998           -4.19051
     43       0.00000          -0.153481           -4.17644
     44       0.00000          -0.109413           -2.97728
     45       0.00000          -0.109143           -2.96993
     46       0.00000          -0.083364           -2.26846
     47       0.00000          -0.050962           -1.38675
     48       0.00000          -0.040229           -1.09468
     49       0.00000          -0.020069           -0.54610
     50       0.00000           0.092884            2.52751
     51       0.00000           0.106929            2.90968
     52       0.00000           0.178463            4.85622
     53       0.00000           0.281083            7.64866
     54       0.00000           0.297785            8.10315
     55       0.00000           0.325857            8.86702
     56       0.00000           0.364042            9.90607
     57       0.00000           0.373703           10.16898
     58       0.00000           0.485731           13.21742
     59       0.00000           0.558573           15.19954
     60       0.00000           0.675380           18.37804
     61       0.00000           0.731616           19.90827

  What follows are estimated values for band gap, HOMO, LUMO, etc.
  | They are estimated on a discrete k-point grid and not necessarily exact.
  | For converged numbers, create a DOS and/or band structure plot on a denser k-grid.

  Highest occupied state (VBM) at    -11.46463803 eV (relative to internal zero)
  | Occupation number:      2.00000000
  | K-point:       1 at    0.000000    0.000000    0.000000 (in units of recip. lattice)

  Lowest unoccupied state (CBM) at    -5.26276832 eV (relative to internal zero)
  | Occupation number:      0.00000000
  | K-point:       1 at    0.000000    0.000000    0.000000 (in units of recip. lattice)

  ESTIMATED overall HOMO-LUMO gap:      6.20186970 eV between HOMO at k-point 1 and LUMO at k-point 1
  | This appears to be a direct band gap.
  The gap value is above 0.2 eV. Unless you are using a very sparse k-point grid,
  this system is most likely an insulator or a semiconductor.
  Calculating total energy contributions from superposition of free atom densities.

  Total energy components:
  | Sum of eigenvalues            :       -1205.40093998 Ha      -32800.62845442 eV
  | XC energy correction          :        -120.23078214 Ha       -3271.64604146 eV
  | XC potential correction       :         155.46073800 Ha        4230.30191645 eV
  | Free-atom electrostatic energy:        -868.39997273 Ha      -23630.36555784 eV
  | Hartree energy correction     :           0.00000000 Ha           0.00000000 eV
  | Entropy correction            :          -0.00000000 Ha          -0.00000000 eV
  | ---------------------------
  | Total energy                  :       -2038.57095685 Ha      -55472.33813726 eV
  | Total energy, T -> 0          :       -2038.57095685 Ha      -55472.33813726 eV  <-- do not rely on this value for anything but (periodic) metals
  | Electronic free energy        :       -2038.57095685 Ha      -55472.33813726 eV

  Derived energy quantities:
  | Kinetic energy                :        2051.96590243 Ha       55836.83315205 eV
  | Electrostatic energy          :       -3970.30607714 Ha     -108037.52524785 eV
  | Energy correction for multipole
  | error in Hartree potential    :           0.00000000 Ha           0.00000000 eV
  | Sum of eigenvalues per atom                           :       -5466.77140907 eV
  | Total energy (T->0) per atom                          :       -9245.38968954 eV  <-- do not rely on this value for anything but (periodic) metals
  | Electronic free energy per atom                       :       -9245.38968954 eV
  Initialize hartree_potential_storage
  Max. number of atoms included in rho_multipole:            6

  End scf initialization - timings             :  max(cpu_time)    wall_clock(cpu1)
  | Time for scf. initialization                :        2.874 s           2.874 s
  | Boundary condition initialization           :        0.087 s           0.087 s
  | Integration                                 :        2.117 s           2.116 s
  | Solution of K.-S. eqns.                     :        0.514 s           0.514 s
  | Grid partitioning                           :        0.051 s           0.050 s
  | Preloading free-atom quantities on grid     :        0.176 s           0.177 s
  | Free-atom superposition energy              :        0.014 s           0.014 s
  | Total energy evaluation                     :        0.002 s           0.002 s

  Partial memory accounting:
  | Current value for overall tracked memory usage:
  |   Minimum:        6.448 MB (on task  0)
  |   Maximum:        6.558 MB (on task  1)
  |   Average:        6.462 MB
  | Peak value for overall tracked memory usage:
  |   Minimum:       17.255 MB (on task  7 after allocating zora_vector2)
  |   Maximum:       18.516 MB (on task 31 after allocating zora_vector2)
  |   Average:       18.003 MB
  | Largest tracked array allocation so far:
  |   Minimum:        4.571 MB (hamiltonian_shell on task  7)
  |   Maximum:        5.332 MB (hamiltonian_shell on task 31)
  |   Average:        5.012 MB
  Note:  These values currently only include a subset of arrays which are explicitly tracked.
  The "true" memory usage will be greater.
------------------------------------------------------------
  Available memory after initialize_scf [GB]:    405.07
  Available memory after allocating mixing [GB]:    405.07
  Evaluating new KS density using the density matrix
  Evaluating density matrix
  Time summed over all CPUs for getting density from density matrix: real work       11.981 s, elapsed       49.167 s
  Integration grid: deviation in total charge (<rho> - N_e) =  -3.126388E-13

  Time for density update prior                :  max(cpu_time)    wall_clock(cpu1)
  | self-consistency iterative process          :        1.562 s           1.563 s
  Available memory before start of SCF loop [GB]:    405.08

------------------------------------------------------------
          Begin self-consistency iteration #    1

  Date     :  20250120, Time     :  140727.109
------------------------------------------------------------
  Pulay mixing of updated and previous charge densities.
  Available memory per node after mixing [GB]:    405.08
  Renormalizing the density to the exact electron count on the 3D integration grid.
  | Formal number of electrons (from input files) :      76.0000000000
  | Integrated number of electrons on 3D grid     :      76.9499999993
  | Charge integration error                      :       0.9499999993
  | Normalization factor for density and gradient :       0.9876543210
  * The proposed renormalization factor deviates too far from 1.
  * Since the initial charge in geometry.in was not equal to the formal charge,
  * it is not yet safe to renormalize the charge. If this message persists
  * even in the final s.c.f. cycle, your integration accuracy may not be good enough.

  Evaluating partitioned Hartree potential by multipole expansion.
  | Original multipole sum: apparent total charge =   0.500000E-01
  | Sum of charges compensated after spline to logarithmic grids =  -0.371080E-07
  | Analytical far-field extrapolation by fixed multipoles:
  | Hartree multipole sum: apparent total charge =   0.500000E-01
  Summing up the Hartree potential.
  Time summed over all CPUs for potential: real work        0.025 s, elapsed        0.048 s
  | RMS charge density error from multipole expansion :   0.112028E-02
  | Average real-space part of the electrostatic potential :     -0.00433717 eV

  Integrating Hamiltonian matrix: batch-based integration.
  Time summed over all CPUs for integration: real work       12.059 s, elapsed       51.220 s => Consider using load balancing!

  Updating Kohn-Sham eigenvalues and eigenvectors using ELSI and the (modified) LAPACK eigensolver.
  Starting LAPACK eigensolver
  Finished Cholesky decomposition
  | Time :     0.000 s
  Finished transformation to standard eigenproblem
  | Time :     0.002 s
  Finished solving standard eigenproblem
  | Time :     0.003 s
  Finished back-transformation of eigenvectors
  | Time :     0.000 s

  Obtaining occupation numbers and electronic chemical potential using ELSI.
  | Note that, for insulating systems, the printed 'chemical potential' value is not uniquely defined.
  | It can be anywhere in the energy gap, as long as it correctly separates occupied and unoccupied states.
  | In systems with a gap, the physically relevant chemical potential is the VBM or HOMO.

  | Chemical potential (Fermi level):   -10.85063543 eV
  Writing Kohn-Sham eigenvalues.
  K-point:       1 at    0.000000    0.000000    0.000000 (in units of recip. lattice)

  State    Occupation    Eigenvalue [Ha]    Eigenvalue [eV]
      1       2.00000        -179.999337        -4898.03117
      2       2.00000        -179.995323        -4897.92195
      3       2.00000         -24.495010         -666.54313
      4       2.00000         -19.773655         -538.06853
      5       2.00000         -19.769832         -537.96451
      6       2.00000         -18.992888         -516.82278
      7       2.00000         -18.992888         -516.82277
      8       2.00000         -18.991933         -516.79680
      9       2.00000         -16.364039         -445.28817
     10       2.00000         -16.363779         -445.28107
     11       2.00000         -16.363760         -445.28056
     12       2.00000         -16.360181         -445.18317
     13       2.00000         -16.359925         -445.17622
     14       2.00000         -16.359924         -445.17620
     15       2.00000          -2.331487          -63.44298
     16       2.00000          -2.328703          -63.36724
     17       2.00000          -1.471932          -40.05332
     18       2.00000          -1.467543          -39.93387
     19       2.00000          -1.461208          -39.76150
     20       2.00000          -1.459446          -39.71355
     21       2.00000          -1.458856          -39.69751
     22       2.00000          -1.457777          -39.66813
     23       2.00000          -1.233657          -33.56951
     24       2.00000          -1.037426          -28.22981
     25       2.00000          -1.003393          -27.30371
     26       2.00000          -0.987700          -26.87670
     27       2.00000          -0.608076          -16.54659
     28       2.00000          -0.563935          -15.34544
     29       2.00000          -0.563738          -15.34008
     30       2.00000          -0.559933          -15.23656
     31       2.00000          -0.500342          -13.61500
     32       2.00000          -0.496410          -13.50799
     33       2.00000          -0.494487          -13.45569
     34       2.00000          -0.469621          -12.77903
     35       2.00000          -0.439803          -11.96765
     36       2.00000          -0.431467          -11.74082
     37       2.00000          -0.427708          -11.63852
     38       2.00000          -0.400424          -10.89609
     39       0.00000          -0.204503           -5.56481
     40       0.00000          -0.198972           -5.41431
     41       0.00000          -0.173908           -4.73228
     42       0.00000          -0.171052           -4.65455
     43       0.00000          -0.168864           -4.59502
     44       0.00000          -0.121940           -3.31815
     45       0.00000          -0.120528           -3.27975
     46       0.00000          -0.082521           -2.24552
     47       0.00000          -0.066067           -1.79776
     48       0.00000          -0.050009           -1.36081
     49       0.00000          -0.031334           -0.85264
     50       0.00000           0.094395            2.56862
     51       0.00000           0.109124            2.96942
     52       0.00000           0.181735            4.94525
     53       0.00000           0.283326            7.70970
     54       0.00000           0.290889            7.91550
     55       0.00000           0.324481            8.82959
     56       0.00000           0.366268            9.96666
     57       0.00000           0.376750           10.25189
     58       0.00000           0.482047           13.11718
     59       0.00000           0.562130           15.29635
     60       0.00000           0.668499           18.19077
     61       0.00000           0.727627           19.79975

  What follows are estimated values for band gap, HOMO, LUMO, etc.
  | They are estimated on a discrete k-point grid and not necessarily exact.
  | For converged numbers, create a DOS and/or band structure plot on a denser k-grid.

  Highest occupied state (VBM) at    -10.89608587 eV (relative to internal zero)
  | Occupation number:      2.00000000
  | K-point:       1 at    0.000000    0.000000    0.000000 (in units of recip. lattice)

  Lowest unoccupied state (CBM) at    -5.56481133 eV (relative to internal zero)
  | Occupation number:      0.00000000
  | K-point:       1 at    0.000000    0.000000    0.000000 (in units of recip. lattice)

  ESTIMATED overall HOMO-LUMO gap:      5.33127454 eV between HOMO at k-point 1 and LUMO at k-point 1
  | This appears to be a direct band gap.
  The gap value is above 0.2 eV. Unless you are using a very sparse k-point grid,
  this system is most likely an insulator or a semiconductor.

  Total energy components:
  | Sum of eigenvalues            :       -1205.76315901 Ha      -32810.48493563 eV
  | XC energy correction          :        -120.23953384 Ha       -3271.88418745 eV
  | XC potential correction       :         155.47015076 Ha        4230.55805051 eV
  | Free-atom electrostatic energy:        -868.39997273 Ha      -23630.36555784 eV
  | Hartree energy correction     :           0.46727514 Ha          12.71520351 eV
  | Entropy correction            :          -0.00000000 Ha          -0.00000000 eV
  | ---------------------------
  | Total energy                  :       -2038.46523968 Ha      -55469.46142689 eV
  | Total energy, T -> 0          :       -2038.46523968 Ha      -55469.46142689 eV  <-- do not rely on this value for anything but (periodic) metals
  | Electronic free energy        :       -2038.46523968 Ha      -55469.46142689 eV

  Derived energy quantities:
  | Kinetic energy                :        2052.07525007 Ha       55839.80865254 eV
  | Electrostatic energy          :       -3970.30095591 Ha     -108037.38589198 eV
  | Energy correction for multipole
  | error in Hartree potential    :           0.00136522 Ha           0.03714948 eV
  | Sum of eigenvalues per atom                           :       -5468.41415594 eV
  | Total energy (T->0) per atom                          :       -9244.91023782 eV  <-- do not rely on this value for anything but (periodic) metals
  | Electronic free energy per atom                       :       -9244.91023782 eV
  Evaluating new KS density using the density matrix
  Evaluating density matrix
  Time summed over all CPUs for getting density from density matrix: real work       12.008 s, elapsed       45.312 s
  Integration grid: deviation in total charge (<rho> - N_e) =  -1.705303E-13

  Self-consistency convergence accuracy:
  | Change of charge density      :  0.7082E+00
  | Change of unmixed KS density  :  0.7240E+02
  | Change of sum of eigenvalues  : -0.9856E+01 eV
  | Change of total energy        :  0.2877E+01 eV


------------------------------------------------------------
  End self-consistency iteration #     1       :  max(cpu_time)    wall_clock(cpu1)
  | Time for this iteration                     :        3.344 s           3.344 s
  | Charge density update                       :        1.501 s           1.501 s
  | Density mixing                              :        0.001 s           0.000 s
  | Hartree multipole update                    :        0.002 s           0.002 s
  | Hartree multipole summation                 :        0.052 s           0.052 s
  | Integration                                 :        1.609 s           1.609 s
  | Solution of K.-S. eqns.                     :        0.175 s           0.175 s
  | Total energy evaluation                     :        0.003 s           0.004 s

  Partial memory accounting:
  | Current value for overall tracked memory usage:
  |   Minimum:        7.119 MB (on task 26)
  |   Maximum:        7.269 MB (on task  3)
  |   Average:        7.151 MB
  | Peak value for overall tracked memory usage:
  |   Minimum:       17.950 MB (on task  7 after allocating zora_vector2)
  |   Maximum:       19.201 MB (on task 31 after allocating zora_vector2)
  |   Average:       18.691 MB
  | Largest tracked array allocation so far:
  |   Minimum:        4.571 MB (hamiltonian_shell on task  7)
  |   Maximum:        5.332 MB (hamiltonian_shell on task 31)
  |   Average:        5.012 MB
  Note:  These values currently only include a subset of arrays which are explicitly tracked.
  The "true" memory usage will be greater.
------------------------------------------------------------

------------------------------------------------------------
          Begin self-consistency iteration #    2

  Date     :  20250120, Time     :  140730.454
------------------------------------------------------------
  Pulay mixing of updated and previous charge densities.
  Available memory per node after mixing [GB]:    405.49
  Renormalizing the density to the exact electron count on the 3D integration grid.
  | Formal number of electrons (from input files) :      76.0000000000
  | Integrated number of electrons on 3D grid     :      76.6873640881
  | Charge integration error                      :       0.6873640881
  | Normalization factor for density and gradient :       0.9910368012
  * The proposed renormalization factor deviates too far from 1.
  * Since the initial charge in geometry.in was not equal to the formal charge,
  * it is not yet safe to renormalize the charge. If this message persists
  * even in the final s.c.f. cycle, your integration accuracy may not be good enough.

  Evaluating partitioned Hartree potential by multipole expansion.
  | Original multipole sum: apparent total charge =   0.312636E+00
  | Sum of charges compensated after spline to logarithmic grids =  -0.154292E-07
  | Analytical far-field extrapolation by fixed multipoles:
  | Hartree multipole sum: apparent total charge =   0.312636E+00
  Summing up the Hartree potential.
  Time summed over all CPUs for potential: real work        0.026 s, elapsed        0.045 s
  | RMS charge density error from multipole expansion :   0.683465E-02
  | Average real-space part of the electrostatic potential :     -0.06255525 eV

  Integrating Hamiltonian matrix: batch-based integration.
  Time summed over all CPUs for integration: real work       12.064 s, elapsed       50.988 s => Consider using load balancing!

  Updating Kohn-Sham eigenvalues and eigenvectors using ELSI and the (modified) LAPACK eigensolver.
  Starting LAPACK eigensolver
  Finished Cholesky decomposition
  | Time :     0.001 s
  Finished transformation to standard eigenproblem
  | Time :     0.001 s
  Finished solving standard eigenproblem
  | Time :     0.003 s
  Finished back-transformation of eigenvectors
  | Time :     0.000 s

  Obtaining occupation numbers and electronic chemical potential using ELSI.
  | Note that, for insulating systems, the printed 'chemical potential' value is not uniquely defined.
  | It can be anywhere in the energy gap, as long as it correctly separates occupied and unoccupied states.
  | In systems with a gap, the physically relevant chemical potential is the VBM or HOMO.

  | Chemical potential (Fermi level):    -8.33012468 eV
  What follows are estimated values for band gap, HOMO, LUMO, etc.
  | They are estimated on a discrete k-point grid and not necessarily exact.
  | For converged numbers, create a DOS and/or band structure plot on a denser k-grid.

  Highest occupied state (VBM) at     -8.37578415 eV (relative to internal zero)
  | Occupation number:      2.00000000
  | K-point:       1 at    0.000000    0.000000    0.000000 (in units of recip. lattice)

  Lowest unoccupied state (CBM) at    -7.56093961 eV (relative to internal zero)
  | Occupation number:      0.00000000
  | K-point:     301 at    0.500000    0.500000    0.000000 (in units of recip. lattice)

  ESTIMATED overall HOMO-LUMO gap:      0.81484453 eV between HOMO at k-point 1 and LUMO at k-point 301
  | This appears to be an indirect band gap.
  | Smallest direct gap :      0.88160314 eV for k_point 1 at    0.000000    0.000000    0.000000 (in units of recip. lattice)
  The gap value is above 0.2 eV. Unless you are using a very sparse k-point grid,
  this system is most likely an insulator or a semiconductor.

  Checking to see if s.c.f. parameters should be adjusted.
  The system likely has a gap. Increased the default Pulay mixing parameter (charge_mix_param). Value:   0.200000 .
  Kept the default occupation width. Value:   0.010000 eV.

  Total energy components:
  | Sum of eigenvalues            :       -1207.78941677 Ha      -32865.62221477 eV
  | XC energy correction          :        -120.26610739 Ha       -3272.60729056 eV
  | XC potential correction       :         155.49506672 Ha        4231.23604844 eV
  | Free-atom electrostatic energy:        -868.39997273 Ha      -23630.36555784 eV
[...]
     54       0.00000           0.303197            8.25042
     55       0.00000           0.342428            9.31793
     56       0.00000           0.390820           10.63476
     57       0.00000           0.403560           10.98142
     58       0.00000           0.478455           13.01943
     59       0.00000           0.585921           15.94372
     60       0.00000           0.654415           17.80755
     61       0.00000           0.721195           19.62472

  What follows are estimated values for band gap, HOMO, LUMO, etc.
  | They are estimated on a discrete k-point grid and not necessarily exact.
  | For converged numbers, create a DOS and/or band structure plot on a denser k-grid.

  Highest occupied state (VBM) at     -8.60585849 eV (relative to internal zero)
  | Occupation number:      2.00000000
  | K-point:       1 at    0.000000    0.000000    0.000000 (in units of recip. lattice)

  Lowest unoccupied state (CBM) at    -7.24695536 eV (relative to internal zero)
  | Occupation number:      0.00000000
  | K-point:     301 at    0.500000    0.500000    0.000000 (in units of recip. lattice)

  ESTIMATED overall HOMO-LUMO gap:      1.35890313 eV between HOMO at k-point 1 and LUMO at k-point 301
  | This appears to be an indirect band gap.
  | Smallest direct gap :      1.42427043 eV for k_point 1 at    0.000000    0.000000    0.000000 (in units of recip. lattice)
  The gap value is above 0.2 eV. Unless you are using a very sparse k-point grid,
  this system is most likely an insulator or a semiconductor.

  | Chemical Potential                          :    -8.56042849 eV
  | Note that, for insulating systems, the printed 'chemical potential' value is not uniquely defined.
  | It can be anywhere in the energy gap, as long as it correctly separates occupied and unoccupied states.
  | In systems with a gap, the physically relevant chemical potential is the VBM or HOMO.

  Self-consistency cycle converged.


------------------------------------------------------------
  End self-consistency iteration #    20       :  max(cpu_time)    wall_clock(cpu1)
  | Time for this iteration                     :        1.739 s           1.739 s
  | Charge density update                       :        0.000 s           0.000 s
  | Density mixing                              :        0.001 s           0.001 s
  | Hartree multipole update                    :        0.002 s           0.002 s
  | Hartree multipole summation                 :        0.087 s           0.086 s
  | Integration                                 :        1.415 s           1.416 s
  | Solution of K.-S. eqns.                     :        0.233 s           0.232 s
  | Total energy evaluation                     :        0.001 s           0.001 s

  Partial memory accounting:
  | Current value for overall tracked memory usage:
  |   Minimum:        7.120 MB (on task 26)
  |   Maximum:        7.270 MB (on task  3)
  |   Average:        7.152 MB
  | Peak value for overall tracked memory usage:
  |   Minimum:       17.951 MB (on task  7 after allocating zora_vector2)
  |   Maximum:       19.202 MB (on task 31 after allocating zora_vector2)
  |   Average:       18.692 MB
  | Largest tracked array allocation so far:
  |   Minimum:        4.571 MB (hamiltonian_shell on task  7)
  |   Maximum:        5.332 MB (hamiltonian_shell on task 31)
  |   Average:        5.012 MB
  Note:  These values currently only include a subset of arrays which are explicitly tracked.
  The "true" memory usage will be greater.
------------------------------------------------------------

------------------------------------------------------------
          Post-processing: scaled ZORA corrections to eigenvalues and total energy.

  Date     :  20250120, Time     :  140834.476
------------------------------------------------------------
  Computing correction matrix for scaled ZORA eigenvalues.
  Evaluating scaled zora correction for each Kohn-Sham eigenstate.
  Writing Kohn-Sham eigenvalues.
  K-point:       1 at    0.000000    0.000000    0.000000 (in units of recip. lattice)

  State    Occupation    Eigenvalue [Ha]    Eigenvalue [eV]
      1       2.00000        -178.995643        -4870.71927
      2       2.00000        -178.973946        -4870.12885
      3       2.00000         -24.404879         -664.09055
      4       2.00000         -19.889757         -541.22783
      5       2.00000         -19.868807         -540.65773
      6       2.00000         -18.862106         -513.26403
      7       2.00000         -18.853193         -513.02149
      8       2.00000         -18.853193         -513.02148
      9       2.00000         -16.482820         -448.52036
     10       2.00000         -16.482757         -448.51864
     11       2.00000         -16.480810         -448.46565
     12       2.00000         -16.461930         -447.95190
     13       2.00000         -16.460696         -447.91832
     14       2.00000         -16.460684         -447.91799
     15       2.00000          -2.432636          -66.19540
     16       2.00000          -2.412514          -65.64785
     17       2.00000          -1.563135          -42.53506
     18       2.00000          -1.556328          -42.34984
     19       2.00000          -1.551930          -42.23016
     20       2.00000          -1.540629          -41.92263
     21       2.00000          -1.536949          -41.82250
     22       2.00000          -1.532039          -41.68889
     23       2.00000          -1.212898          -33.00464
     24       2.00000          -0.959493          -26.10914
     25       2.00000          -0.927091          -25.22744
     26       2.00000          -0.906989          -24.68042
     27       2.00000          -0.591262          -16.08905
     28       2.00000          -0.550834          -14.98897
     29       2.00000          -0.534280          -14.53850
     30       2.00000          -0.510227          -13.88398
     31       2.00000          -0.446854          -12.15951
     32       2.00000          -0.438867          -11.94217
     33       2.00000          -0.438028          -11.91936
     34       2.00000          -0.409309          -11.13786
     35       2.00000          -0.364926           -9.93014
     36       2.00000          -0.350842           -9.54690
     37       2.00000          -0.349620           -9.51365
     38       2.00000          -0.316236           -8.60521
     39       0.00000          -0.263889           -7.18080
     40       0.00000          -0.242126           -6.58859
     41       0.00000          -0.241775           -6.57904
     42       0.00000          -0.238646           -6.49390
     43       0.00000          -0.229792           -6.25297
     44       0.00000          -0.181413           -4.93650
     45       0.00000          -0.166382           -4.52750
     46       0.00000          -0.121445           -3.30468
     47       0.00000          -0.078813           -2.14462
     48       0.00000          -0.071725           -1.95172
     49       0.00000          -0.048314           -1.31468
     50       0.00000           0.117026            3.18444
     51       0.00000           0.136711            3.72009
     52       0.00000           0.220466            5.99918
     53       0.00000           0.279858            7.61533
     54       0.00000           0.303167            8.24960
     55       0.00000           0.342395            9.31705
     56       0.00000           0.390784           10.63378
     57       0.00000           0.403521           10.98037
     58       0.00000           0.478412           13.01824
     59       0.00000           0.585858           15.94200
     60       0.00000           0.654350           17.80578
     61       0.00000           0.721117           19.62260

  What follows are estimated values for band gap, HOMO, LUMO, etc.
  | They are estimated on a discrete k-point grid and not necessarily exact.
  | For converged numbers, create a DOS and/or band structure plot on a denser k-grid.

  Highest occupied state (VBM) at     -8.60520869 eV (relative to internal zero)
  | Occupation number:      2.00000000
  | K-point:       1 at    0.000000    0.000000    0.000000 (in units of recip. lattice)

  Lowest unoccupied state (CBM) at    -7.24615655 eV (relative to internal zero)
  | Occupation number:      0.00000000
  | K-point:     301 at    0.500000    0.500000    0.000000 (in units of recip. lattice)

  ESTIMATED overall HOMO-LUMO gap:      1.35905215 eV between HOMO at k-point 1 and LUMO at k-point 301
  | This appears to be an indirect band gap.
  | Smallest direct gap :      1.42441108 eV for k_point 1 at    0.000000    0.000000    0.000000 (in units of recip. lattice)
  The gap value is above 0.2 eV. Unless you are using a very sparse k-point grid,
  this system is most likely an insulator or a semiconductor.

  Total energy components:
  | Sum of eigenvalues            :       -1202.07348516 Ha      -32710.08380184 eV
  | XC energy correction          :        -120.00592504 Ha       -3265.52736864 eV
  | XC potential correction       :         155.14655241 Ha        4221.75249158 eV
  | Free-atom electrostatic energy:        -868.39997273 Ha      -23630.36555784 eV
  | Hartree energy correction     :           1.98657161 Ha          54.05736396 eV
  | Entropy correction            :          -0.00000000 Ha          -0.00000000 eV
  | ---------------------------
  | Total energy                  :       -2033.34625891 Ha      -55330.16687278 eV
  | Total energy, T -> 0          :       -2033.34625891 Ha      -55330.16687278 eV  <-- do not rely on this value for anything but (periodic) metals
  | Electronic free energy        :       -2033.34625891 Ha      -55330.16687278 eV

  Derived energy quantities:
  | Kinetic energy                :        2056.11938315 Ha       55949.85511291 eV
  | Electrostatic energy          :       -3969.45971702 Ha     -108014.49461705 eV
  | Energy correction for multipole
  | error in Hartree potential    :           0.02344984 Ha           0.63810268 eV
  | Sum of eigenvalues per atom                           :       -5451.68063364 eV
  | Total energy (T->0) per atom                          :       -9221.69447880 eV  <-- do not rely on this value for anything but (periodic) metals
  | Electronic free energy per atom                       :       -9221.69447880 eV
  End evaluation of scaled ZORA corrections.
  | Time for scaled ZORA corrections            :        1.651 s           1.652 s
------------------------------------------------------------

  Energy and forces in a compact form:
  | Total energy uncorrected      :         -0.553301668727796E+05 eV
  | Total energy corrected        :         -0.553301668727796E+05 eV  <-- do not rely on this value for anything but (periodic) metals
  | Electronic free energy        :         -0.553301668727796E+05 eV

  ------------------------------------ 
  Start decomposition of the XC Energy 
  ------------------------------------ 
  X and C from original XC functional choice 
  Hartree-Fock Energy :          0.000000000 Ha              0.000000000 eV
  X Energy            :       -117.010807533 Ha          -3184.026074432 eV
  C Energy            :         -2.995117511 Ha            -81.501294208 eV
  XC Energy w/o HF    :       -120.005925044 Ha          -3265.527368640 eV
  Total XC Energy     :       -120.005925044 Ha          -3265.527368640 eV
  ------------------------------------ 
  LDA X and C from self-consistent density 
  X Energy LDA        :       -108.577481167 Ha          -2954.543588078 eV
  C Energy LDA        :         -5.903656467 Ha           -160.646666073 eV
  ------------------------------------ 
  End decomposition of the XC Energy 
  ------------------------------------ 

------------------------------------------------------------

  ------------------------------------------------------------
                   Starting Mulliken Analysis
  ------------------------------------------------------------

  Performing Mulliken charge analysis on all atoms.
  Full analysis will be written to separate file 'Mulliken.out'.
  Summary of the per-atom charge analysis:
  |
  |  atom       electrons          charge             l=0             l=1             l=2             l=3
  |     1       20.520735        1.479265        5.944543       12.463554        1.976986        0.135652
  |     2       20.476806        1.523194        5.953066       12.448538        1.941890        0.133312
  |     3        9.393383       -0.393383        3.933683        5.449002        0.010698
  |     4        8.505807       -0.505807        3.850154        4.646485        0.009168
  |     5        8.551635       -0.551635        3.849665        4.692950        0.009019
  |     6        8.551634       -0.551634        3.849665        4.692949        0.009020
  |
  | Total       76.000000        1.000000
 
  Writing Mulliken decomposition to disk ...

  Mulliken analysis                                       :  max(cpu_time)    wall_clock(cpu1)
  | Time for Mulliken analysis                            :          3.272               3.281
  | Total time for Mulliken analysis                      :          3.272               3.281
------------------------------------------------------------

------------------------------------------------------------------------------
  Final output of selected total energy values:

  The following output summarizes some interesting total energy values
  at the end of a run (AFTER all relaxation, molecular dynamics, etc.).

  | Total energy of the DFT / Hartree-Fock s.c.f. calculation      :         -55330.166872780 eV
  | Final zero-broadening corrected energy (caution - metals only) :         -55330.166872780 eV
  | For reference only, the value of 1 Hartree used in FHI-aims is :             27.211384500 eV
  | For reference only, the overall average (free atom contribution
  | + realspace contribution) of the electrostatic potential after
  | s.c.f. convergence is                                          :            -18.264481594 eV

  Before relying on these values, please be sure to understand exactly which
  total energy value is referred to by a given number. Different objects may
  all carry the same name 'total energy'. Definitions:

  Total energy of the DFT / Hartree-Fock s.c.f. calculation:
  | Note that this energy does not include ANY quantities calculated after the
  | s.c.f. cycle, in particular not ANY RPA, MP2, etc. many-body perturbation terms.
  | Scalar relativistic effects have been included in the 'scaled ZORA' approximation.

  Final zero-broadening corrected energy:
  | For metallic systems only, a broadening of the occupation numbers at the Fermi
  | level can be extrapolated back to zero broadening by an electron-gas inspired
  | formula. For all systems that are not real metals, this value can be
  | meaningless and should be avoided.

------------------------------------------------------------------------------
  Methods described in the following list of references were used in this FHI-aims run.
  If you publish the results, please make sure to cite these reference if they apply.
  FHI-aims is an academic code, and for our developers (often, Ph.D. students
  and postdocs), scientific credit in the community is essential.
  Thank you for helping us!

  For any use of FHI-aims, please cite:

    Volker Blum, Ralf Gehrke, Felix Hanke, Paula Havu, Ville Havu,
    Xinguo Ren, Karsten Reuter, and Matthias Scheffler
    'Ab initio molecular simulations with numeric atom-centered orbitals'
    Computer Physics Communications 180, 2175-2196 (2009)
    http://doi.org/10.1016/j.cpc.2009.06.022


  The provided symmetry information was generated with SPGlib:

    Atsushi Togo, Yusuke Seto, Dimitar Pashov
    SPGlib 1.7.3 obtained from http://spglib.sourceforge.net
    Licence: New BSD license
    Copyright (C) 2008 Atsushi Togo


  The ELSI infrastructure was used in your run to solve the Kohn-Sham electronic structure.
  Please check out https://wordpress.elsi-interchange.org to learn more.
  If scalability is important for your project, please acknowledge ELSI by citing:

    V. W-z. Yu, F. Corsetti, A. Garcia, W. P. Huhn, M. Jacquelin, W. Jia,
    B. Lange, L. Lin, J. Lu, W. Mi, A. Seifitokaldani, A. Vazquez-Mayagoitia,
    C. Yang, H. Yang, and V. Blum
    'ELSI: A unified software interface for Kohn-Sham electronic structure solvers'
    Computer Physics Communications 222, 267-285 (2018).
    http://doi.org/10.1016/j.cpc.2017.09.007


  For the real-space grid partitioning and parallelization used in this calculation, please cite:

    Ville Havu, Volker Blum, Paula Havu, and Matthias Scheffler,
    'Efficient O(N) integration for all-electron electronic structure calculation'
    'using numerically tabulated basis functions'
    Journal of Computational Physics 228, 8367-8379 (2009).
    http://doi.org/10.1016/j.jcp.2009.08.008

  Of course, there are many other important community references, e.g., those cited in the
  above references. Our list is limited to references that describe implementations in the
  FHI-aims code. The reason is purely practical (length of this list) - please credit others as well.

------------------------------------------------------------
          Leaving FHI-aims.
          Date     :  20250120, Time     :  140839.437

          Computational steps:
          | Number of self-consistency cycles          :           20
          | Number of SCF (re)initializations          :            1

          Detailed time accounting                     :  max(cpu_time)    wall_clock(cpu1)
          | Total time                                  :       77.458 s          77.468 s
          | Preparation time                            :        0.523 s           0.519 s
          | Boundary condition initalization            :        0.087 s           0.087 s
          | Grid partitioning                           :        0.051 s           0.050 s
          | Preloading free-atom quantities on grid     :        0.176 s           0.177 s
          | Free-atom superposition energy              :        0.014 s           0.014 s
          | Total time for integrations                 :       33.104 s          33.102 s
          | Total time for solution of K.-S. equations  :        7.464 s           7.466 s
          | Total time for density update               :       28.668 s          28.669 s
          | Total time for mixing                       :        0.024 s           0.024 s
          | Total time for Hartree multipole update     :        0.041 s           0.040 s
          | Total time for Hartree multipole sum        :        2.198 s           2.202 s
          | Total time for total energy evaluation      :        0.032 s           0.041 s
          | Total time for scaled ZORA corrections      :        1.651 s           1.652 s
          | Total time for Mulliken analysis            :        3.280 s           3.281 s

          Partial memory accounting:
          | Residual value for overall tracked memory usage across tasks:     0.000000 MB (should be 0.000000 MB)
          | Peak values for overall tracked memory usage:
          |   Minimum:       17.951 MB (on task  7 after allocating zora_vector2)
          |   Maximum:       19.202 MB (on task 31 after allocating zora_vector2)
          |   Average:       18.692 MB
          | Largest tracked array allocation:
          |   Minimum:        4.571 MB (hamiltonian_shell on task  7)
          |   Maximum:        5.332 MB (hamiltonian_shell on task 31)
          |   Average:        5.012 MB
          Note:  These values currently only include a subset of arrays which are explicitly tracked.
          The "true" memory usage will be greater.

          Have a nice day.
------------------------------------------------------------
