------------------------------------------------------------
          Invoking FHI-aims ...

          When using FHI-aims, please cite the following reference:

            Volker Blum, Ralf Gehrke, Felix Hanke, Paula Havu,
            Ville Havu, Xinguo Ren, Karsten Reuter, and Matthias Scheffler,
            'Ab Initio Molecular Simulations with Numeric Atom-Centered Orbitals',
            Computer Physics Communications 180, 2175-2196 (2009)

          In addition, many other developments in FHI-aims are likely important for
          your particular application. If so, please cite them. A partial list of references
          is written at the end of this file. Thank you for giving credit to the authors
          of these developments.

          For general information about FHI-aims please find us at

            https://fhi-aims.org

          Online tutorials can be found at

            https://fhi-aims-club.gitlab.io/tutorials/tutorials-overview/

          For any questions about FHI-aims, please visit our slack channel at

            https://fhi-aims.slack.com

          and our main development and support site at

            https://aims-git.rz-berlin.mpg.de .

          The latter site, in particular, has a wiki to collect information, as well
          as an issue tracker to log discussions, suggest improvements, and report issues
          or bugs. https://aims-git.rz-berlin.mpg.de is also the main development site
          of the project and all new and updated code versions can be obtained there.
          Please send an email to aims-coordinators@fhi-berlin.mpg.de and we will add
          you to these sites. They are for you and everyone is welcome there.

------------------------------------------------------------



  Date     :  20240710, Time     :  231900.201
  Time zero on CPU 1             :   0.284574000000000E+00  s.
  Internal wall clock time zero  :           489885540.201  s.

  FHI-aims created a unique identifier for this run for later identification
  aims_uuid : 13FC39F9-E60B-4E78-AFE4-84C413A2D035

  Build configuration of the current instance of FHI-aims
  -------------------------------------------------------
  FHI-aims version      : 240605
  Commit number         : b001b2e18
  CMake host system     : Linux-6.5.0-41-generic
  CMake version         : 3.22.1
  Fortran compiler      : /opt/intel/oneapi/mpi/2021.12/bin/mpiifort (IntelLLVM) version 2024.1.0
  Fortran compiler flags: -fc=ifx -O3 -ip -fp-model precise
  C compiler            : /opt/intel/oneapi/mpi/2021.12/bin/mpiicc (IntelLLVM) version 2024.1.0
  C compiler flags      : -cc=icx -O3 -ip -fp-model precise -std=gnu99
  C++ compiler          : /opt/intel/oneapi/mpi/2021.12/bin/mpiicpc (IntelLLVM) version 2024.1.0
  C++ compiler flags    : -cxx=icpx -O3 -ip -fp-model precise -std=c++11
  HIP compiler          :
  HIP compiler flags    :
  HIP GPU arch          :
  Using MPI
  Using ScaLAPACK
  Using LibXC
  Using i-PI
  Using RLSY
  Linking against: /opt/intel/oneapi/mkl/2024.1/lib/intel64/libmkl_intel_lp64.so
                   /opt/intel/oneapi/mkl/2024.1/lib/intel64/libmkl_sequential.so
                   /opt/intel/oneapi/mkl/2024.1/lib/intel64/libmkl_core.so
                   /opt/intel/oneapi/mkl/2024.1/lib/intel64/libmkl_blacs_intelmpi_lp64.so
                   /opt/intel/oneapi/mkl/2024.1/lib/intel64/libmkl_scalapack_lp64.so
                   /opt/intel/oneapi/mkl/2024.1/lib/intel64/libmkl_core.so

  Using       24 parallel tasks.
  Task        0 on host RSL-arvutus reporting.
  Task        1 on host RSL-arvutus reporting.
  Task        2 on host RSL-arvutus reporting.
  Task        3 on host RSL-arvutus reporting.
  Task        4 on host RSL-arvutus reporting.
  Task        5 on host RSL-arvutus reporting.
  Task        6 on host RSL-arvutus reporting.
  Task        7 on host RSL-arvutus reporting.
  Task        8 on host RSL-arvutus reporting.
  Task        9 on host RSL-arvutus reporting.
  Task       10 on host RSL-arvutus reporting.
  Task       11 on host RSL-arvutus reporting.
  Task       12 on host RSL-arvutus reporting.
  Task       13 on host RSL-arvutus reporting.
  Task       14 on host RSL-arvutus reporting.
  Task       15 on host RSL-arvutus reporting.
  Task       16 on host RSL-arvutus reporting.
  Task       17 on host RSL-arvutus reporting.
  Task       18 on host RSL-arvutus reporting.
  Task       19 on host RSL-arvutus reporting.
  Task       20 on host RSL-arvutus reporting.
  Task       21 on host RSL-arvutus reporting.
  Task       22 on host RSL-arvutus reporting.
  Task       23 on host RSL-arvutus reporting.

  Memory overcommitment is allowed on your operating system.

  Obtaining array dimensions for all initial allocations:
  
  -----------------------------------------------------------------------
  Parsing control.in (first pass over file, find array dimensions only).
  The contents of control.in will be repeated verbatim below
  unless switched off by setting 'verbatim_writeout .false.' .
  in the first line of control.in .
  -----------------------------------------------------------------------
  
  xc              pbe
  relativistic    atomic_zora scalar
  k_grid          4 4 4
  relax_geometry  bfgs 5e-3
  relax_unit_cell full
  ################################################################################
  #
  #  FHI-aims code project
  #  VB, Fritz-Haber Institut, 2009
  #
  #  Suggested "light" defaults for Ti atom (to be pasted into control.in file)
  #  Be sure to double-check any results obtained with these settings for post-processing,
  #  e.g., with the "tight" defaults and larger basis sets.
  #
  ################################################################################
    species        Ti
  #     global species definitions
      nucleus             22
      mass                47.867
  #
      l_hartree           4
  #
      cut_pot             3.5          1.5  1.0
      basis_dep_cutoff    1e-4
  #
      radial_base         48 5.0
      radial_multiplier   1
      angular_grids       specified
        division   0.5171   50
        division   0.9824  110
        division   1.2917  194
        division   1.4940  302
  #      division   1.6934  434
  #      division   1.8425  590
  #      division   2.1901  770
  #      division   2.2896  974
  #      division   2.8244 1202
  #      outer_grid  974
        outer_grid  302
  ################################################################################
  #
  #  Definition of "minimal" basis
  #
  ################################################################################
  #     valence basis states
      valence      4  s   2.
      valence      3  p   6.
      valence      3  d   2.
  #     ion occupancy
      ion_occ      4  s   1.
      ion_occ      3  p   6.
      ion_occ      3  d   1.
  ################################################################################
  #
  #  Suggested additional basis functions. For production calculations,
  #  uncomment them one after another (the most important basis functions are
  #  listed first).
  #
  #  Constructed for dimers: 1.6 A, 1.85 A, 2.5 A, 3.25 A, 4.25 A
  #
  ################################################################################
  #  "First tier" - improvements: -396.25 meV to -19.41 meV
       hydro 4 f 8
       hydro 3 d 2.7
       ionic 4 p auto
  #     hydro 5 g 11.6
       ionic 4 s auto
  #  "Second tier" - improvements: -16.30 meV to -2.03 meV
  #     hydro 3 d 4.4
  #     hydro 6 h 16
  #     hydro 4 f 9.4
  #     hydro 4 p 4.5
  #     hydro 1 s 0.5
  #  "Third tier" - improvements: -6.28 meV to -0.37 meV
  #     hydro 4 d 6.4
  #     hydro 4 f 10
  #     hydro 5 g 12
  #     hydro 2 p 1.7
  #     hydro 6 h 16.4
  #     hydro 4 s 3.8
  #  Further basis functions: -0.45 meV and smaller improvements
  #     hydro 3 d 8.8
  #     hydro 5 p 18
  #     hydro 4 f 22.4
  #     hydro 5 f 7.2  # -0.16 meV
  #     hydro 3 d 2.1  # -0.11 meV
  #     hydro 5 g 7.4  # -0.09 meV
  ################################################################################
  #
  #  FHI-aims code project
  #  VB, Fritz-Haber Institut, 2009
  #
  #  Suggested "light" defaults for O atom (to be pasted into control.in file)
  #  Be sure to double-check any results obtained with these settings for post-processing,
  #  e.g., with the "tight" defaults and larger basis sets.
  #
  ################################################################################
    species        O
  #     global species definitions
      nucleus             8
      mass                15.9994
  #
      l_hartree           4
  #
      cut_pot             3.5  1.5  1.0
      basis_dep_cutoff    1e-4
  #
      radial_base         36 5.0
      radial_multiplier   1
       angular_grids specified
        division   0.2659   50
        division   0.4451  110
        division   0.6052  194
        division   0.7543  302
  #      division   0.8014  434
  #      division   0.8507  590
  #      division   0.8762  770
  #      division   0.9023  974
  #      division   1.2339 1202
  #      outer_grid 974
        outer_grid 302
  ################################################################################
  #
  #  Definition of "minimal" basis
  #
  ################################################################################
  #     valence basis states
      valence      2  s   2.
      valence      2  p   4.
  #     ion occupancy
      ion_occ      2  s   1.
      ion_occ      2  p   3.
  ################################################################################
  #
  #  Suggested additional basis functions. For production calculations,
  #  uncomment them one after another (the most important basis functions are
  #  listed first).
  #
  #  Constructed for dimers: 1.0 A, 1.208 A, 1.5 A, 2.0 A, 3.0 A
  #
  ################################################################################
  #  "First tier" - improvements: -699.05 meV to -159.38 meV
       hydro 2 p 1.8
       hydro 3 d 7.6
       hydro 3 s 6.4
  #  "Second tier" - improvements: -49.91 meV to -5.39 meV
  #     hydro 4 f 11.6
  #     hydro 3 p 6.2
  #     hydro 3 d 5.6
  #     hydro 5 g 17.6
  #     hydro 1 s 0.75
  #  "Third tier" - improvements: -2.83 meV to -0.50 meV
  #     ionic 2 p auto
  #     hydro 4 f 10.8
  #     hydro 4 d 4.7
  #     hydro 2 s 6.8
  #  "Fourth tier" - improvements: -0.40 meV to -0.12 meV
  #     hydro 3 p 5
  #     hydro 3 s 3.3
  #     hydro 5 g 15.6
  #     hydro 4 f 17.6
  #     hydro 4 d 14
  # Further basis functions - -0.08 meV and below
  #     hydro 3 s 2.1
  #     hydro 4 d 11.6
  #     hydro 3 p 16
  #     hydro 2 s 17.2
  
  -----------------------------------------------------------------------
  Completed first pass over input file control.in .
  -----------------------------------------------------------------------
  
  
  -----------------------------------------------------------------------
  Parsing geometry.in (first pass over file, find array dimensions only).
  The contents of geometry.in will be repeated verbatim below
  unless switched off by setting 'verbatim_writeout .false.' .
  in the first line of geometry.in .
  -----------------------------------------------------------------------
  
  lattice_vector 4.594000 0.000000 0.000000
  lattice_vector 0.000000 4.594000 0.000000
  lattice_vector 0.000000 0.000000 2.958000
  
  atom_frac 0.000000 0.000000 0.000000 Ti
  atom_frac 0.500000 0.500000 0.500000 Ti
  atom_frac 0.305000 0.305000 0.000000 O
  atom_frac 0.695000 0.695000 0.000000 O
  atom_frac 0.305000 0.695000 0.500000 O
  atom_frac 0.695000 0.305000 0.500000 O
  
  -----------------------------------------------------------------------
  Completed first pass over input file geometry.in .
  -----------------------------------------------------------------------
  

  Basic array size parameters:
  | Number of species                 :        2
  | Number of atoms                   :        6
  | Number of lattice vectors         :        3
  | Max. basis fn. angular momentum   :        3
  | Max. atomic/ionic basis occupied n:        4
  | Max. number of basis fn. types    :        3
  | Max. radial fns per species/type  :        7
  | Max. logarithmic grid size        :     1383
  | Max. radial integration grid size :       48
  | Max. angular integration grid size:      302
  | Max. angular grid division number :        8
  | Radial grid for Hartree potential :     1383
  | Number of spin channels           :        1

------------------------------------------------------------
          Reading file control.in.
------------------------------------------------------------
  XC: Using PBE gradient-corrected functionals.
  Scalar relativistic treatment of kinetic energy: on-site free-atom approximation to ZORA.
  Found k-point grid:         4         4         4
  Geometry relaxation: Modified BFGS - TRM (trust radius method) for lattice optimization.
  Convergence accuracy for geometry relaxation: Maximum force <   0.500000E-02 eV/A.
 
  Reading configuration options for species Ti                  .
  | Found nuclear charge :  22.0000
  | Found atomic mass :    47.8670000000000      amu
  | Found l_max for Hartree potential  :   4
  | Found cutoff potl. onset [A], width [A], scale factor :    3.50000    1.50000    1.00000
  | Threshold for basis-dependent cutoff potential is   0.100000E-03
  | Found data for basic radial integration grid :    48 points, outermost radius =    5.000 A
  | Found multiplier for basic radial grid :   1
  | Found angular grid specification: user-specified.
  | Specified grid contains     5 separate shells.
  | Check grid settings after all constraints further below.
  | Found free-atom valence shell :  4 s   2.000
  | Found free-atom valence shell :  3 p   6.000
  | Found free-atom valence shell :  3 d   2.000
  | Found free-ion valence shell :  4 s   1.000
  | Found free-ion valence shell :  3 p   6.000
  | Found free-ion valence shell :  3 d   1.000
  | Found hydrogenic basis function :  4 f   8.000
  | Found hydrogenic basis function :  3 d   2.700
  | Found ionic basis function :  4 p , default cutoff radius.
  | Found ionic basis function :  4 s , default cutoff radius.
 | Encountered keyword species, ending the description of species Ti                  .
  Species Ti                  : Missing cutoff potential type.
  Defaulting to exp(1/x)/(1-x)^2 type cutoff potential.
  Species Ti: No 'logarithmic' tag. Using default grid for free atom:
  | Default logarithmic grid data [bohr] : 0.1000E-03 0.1000E+03 0.1012E+01
  | Will include ionic basis functions of  2.0-fold positive Ti                   ion.
  Species Ti: On-site basis accuracy parameter (for Gram-Schmidt orthonormalisation) not specified.
  Using default value basis_acc =  0.1000000E-03.
  Species Ti                  : Using default innermost maximum threshold i_radial=  2 for radial functions.
  Species Ti                  : Default cutoff onset for free atom density etc. : 0.35000000E+01 AA.
  Species Ti                  : Basic radial grid will be enhanced according to radial_multiplier =   1, to contain    48 grid points.
 
  Reading configuration options for species O                   .
  | Found nuclear charge :   8.0000
  | Found atomic mass :    15.9994000000000      amu
  | Found l_max for Hartree potential  :   4
  | Found cutoff potl. onset [A], width [A], scale factor :    3.50000    1.50000    1.00000
  | Threshold for basis-dependent cutoff potential is   0.100000E-03
  | Found data for basic radial integration grid :    36 points, outermost radius =    5.000 A
  | Found multiplier for basic radial grid :   1
  | Found angular grid specification: user-specified.
  | Specified grid contains     5 separate shells.
  | Check grid settings after all constraints further below.
  | Found free-atom valence shell :  2 s   2.000
  | Found free-atom valence shell :  2 p   4.000
  | Found free-ion valence shell :  2 s   1.000
  | Found free-ion valence shell :  2 p   3.000
  | Found hydrogenic basis function :  2 p   1.800
  | Found hydrogenic basis function :  3 d   7.600
  | Found hydrogenic basis function :  3 s   6.400
  Species O                   : Missing cutoff potential type.
  Defaulting to exp(1/x)/(1-x)^2 type cutoff potential.
  Species O : No 'logarithmic' tag. Using default grid for free atom:
  | Default logarithmic grid data [bohr] : 0.1000E-03 0.1000E+03 0.1012E+01
  Species O : On-site basis accuracy parameter (for Gram-Schmidt orthonormalisation) not specified.
  Using default value basis_acc =  0.1000000E-03.
  Species O                   : Using default innermost maximum threshold i_radial=  2 for radial functions.
  Species O                   : Default cutoff onset for free atom density etc. : 0.35000000E+01 AA.
  Species O                   : Basic radial grid will be enhanced according to radial_multiplier =   1, to contain    36 grid points.
 
  Finished reading input file 'control.in'.
 
------------------------------------------------------------


------------------------------------------------------------
          Reading geometry description geometry.in.
------------------------------------------------------------
  | The smallest distance between any two atoms is         1.26689494 AA.
  | The first atom of this pair is atom number                      2 .
  | The second atom of this pair is atom number                     6 .
  | Wigner-Seitz cell of the first atom image           0     1     0 .
  | (The Wigner-Seitz cell of the second atom is 0 0 0  by definition.)

  Symmetry information by spglib:
  | Precision set to  0.1E-04
  | Number of Operations  : 8
  | Space group           : 65
  | International         : Cmmm
  | Schoenflies           : D2h^19
  Input structure read successfully.
  The structure contains        6 atoms,  and a total of         76.000 electrons.

  Input geometry:
  | Unit cell:
  |        4.59400000        0.00000000        0.00000000
  |        0.00000000        4.59400000        0.00000000
  |        0.00000000        0.00000000        2.95800000
  | Atomic structure:
  |       Atom                x [A]            y [A]            z [A]
  |    1: Species Ti            0.00000000        0.00000000        0.00000000
  |    2: Species Ti            2.29700000        2.29700000        1.47900000
  |    3: Species O             1.40117000        1.40117000        0.00000000
  |    4: Species O             3.19283000        3.19283000        0.00000000
  |    5: Species O             1.40117000        3.19283000        1.47900000
  |    6: Species O             3.19283000        1.40117000        1.47900000

  Lattice parameters for 3D lattice (in Angstroms) :     4.594000    4.594000    2.958000
  Angle(s) between unit vectors (in degrees)       :    90.000000   90.000000   90.000000


  Quantities derived from the lattice vectors (in Angstrom^-1):
  | Reciprocal lattice vector 1:  1.367694  0.000000  0.000000
  | Reciprocal lattice vector 2:  0.000000  1.367694  0.000000
  | Reciprocal lattice vector 3:  0.000000  0.000000  2.124133
  | Unit cell volume                               :   0.624281E+02  Angstrom^3

  Fractional coordinates:
                         L1                L2                L3
       atom_frac         0.00000000        0.00000000        0.00000000  Ti
       atom_frac         0.50000000        0.50000000        0.50000000  Ti
       atom_frac         0.30500000        0.30500000        0.00000000  O
       atom_frac         0.69500000        0.69500000        0.00000000  O
       atom_frac         0.30500000        0.69500000        0.50000000  O
       atom_frac         0.69500000        0.30500000        0.50000000  O

  Slab Identifier: This seems to be a bulk system.
 
  Finished reading input file 'geometry.in'.
 

 
  Consistency checks for stacksize environment parameter are next.
 
  | Maximum stacksize for task 0: unlimited
  | Maximum stacksize for task 1: unlimited
  | Maximum stacksize for task 2: unlimited
  | Maximum stacksize for task 3: unlimited
  | Maximum stacksize for task 4: unlimited
  | Maximum stacksize for task 5: unlimited
  | Maximum stacksize for task 6: unlimited
  | Maximum stacksize for task 7: unlimited
  | Maximum stacksize for task 8: unlimited
  | Maximum stacksize for task 9: unlimited
  | Maximum stacksize for task 10: unlimited
  | Maximum stacksize for task 11: unlimited
  | Maximum stacksize for task 12: unlimited
  | Maximum stacksize for task 13: unlimited
  | Maximum stacksize for task 14: unlimited
  | Maximum stacksize for task 15: unlimited
  | Maximum stacksize for task 16: unlimited
  | Maximum stacksize for task 17: unlimited
  | Maximum stacksize for task 18: unlimited
  | Maximum stacksize for task 19: unlimited
  | Maximum stacksize for task 20: unlimited
  | Maximum stacksize for task 21: unlimited
  | Maximum stacksize for task 22: unlimited
  | Maximum stacksize for task 23: unlimited
  | Current stacksize for task 0: unlimited
  | Current stacksize for task 1: unlimited
  | Current stacksize for task 2: unlimited
  | Current stacksize for task 3: unlimited
  | Current stacksize for task 4: unlimited
  | Current stacksize for task 5: unlimited
  | Current stacksize for task 6: unlimited
  | Current stacksize for task 7: unlimited
  | Current stacksize for task 8: unlimited
  | Current stacksize for task 9: unlimited
  | Current stacksize for task 10: unlimited
  | Current stacksize for task 11: unlimited
  | Current stacksize for task 12: unlimited
  | Current stacksize for task 13: unlimited
  | Current stacksize for task 14: unlimited
  | Current stacksize for task 15: unlimited
  | Current stacksize for task 16: unlimited
  | Current stacksize for task 17: unlimited
  | Current stacksize for task 18: unlimited
  | Current stacksize for task 19: unlimited
  | Current stacksize for task 20: unlimited
  | Current stacksize for task 21: unlimited
  | Current stacksize for task 22: unlimited
  | Current stacksize for task 23: unlimited
 
  Consistency checks for the contents of control.in are next.
 
  MPI_IN_PLACE appears to work with this MPI implementation.
  | Keeping use_mpi_in_place .true. (see manual).
  Target number of points in a grid batch is not set. Defaulting to  100
  Method for grid partitioning is not set. Defaulting to parallel hash+maxmin partitioning.
  Batch size limit is not set. Defaulting to    200
  By default, will store active basis functions for each batch.
  If in need of memory, prune_basis_once .false. can be used to disable this option.
  communication_type for Hartree potential was not specified.
  Defaulting to calc_hartree .
  Defaulting to Pulay charge density mixer.
  Pulay mixer: Number of relevant iterations not set.
  Defaulting to    8 iterations.
  Pulay mixer: Number of initial linear mixing iterations not set.
  Defaulting to    0 iterations.
  Work space size for distributed Hartree potential not set.
  Defaulting to   0.200000E+03 MB.
  Mixing parameter for charge density mixing has not been set.
  Using default: charge_mix_param =     0.0500.
  The mixing parameter will be adjusted in iteration number     2 of each s.c.f. cycle (i.e., each geometry step).
  Algorithm-dependent basis array size parameters:
  | n_max_pulay                         :        8
  Maximum number of self-consistency iterations not provided.
  Presetting  1000 iterations.
  Presetting      1001 iterations before the initial mixing cycle
  is restarted anyway using the sc_init_iter criterion / keyword.
  Presetting a factor      1.000 between actual scf density residual
  and density convergence criterion sc_accuracy_rho below which sc_init_iter
  takes no effect.
 * No s.c.f. convergence criteria (sc_accuracy_*) were provided in control.in.
 * The run will proceed with a reasonable default guess, but please check whether.
 * the s.c.f. cycles seem to take too much or too little time.
  No maximum number of relaxation steps, defaulting to     1000
  Default initial Hessian is Lindh matrix (thres = 15.00) plus  0.200000E+01 eV/A^2 times unity.
  No maximum energy tolerance for TRM/BFGS moves, defaulting to   0.150000E-02
  Maximum energy tolerance by which TRM/BFGS trajectory may increase over multiple steps:   0.300000E-02
  No harmonic length scale. Defaulting to   0.250000E-01 A.
  No trust radius initializer. Defaulting to   0.200000E+00 A.
  Unit cell relaxation: Unit cell will be relaxed fully.
  Unit cell relaxation: Analytical stress will be used.
  Analytical stress will be computed.
  Analytical stress calculation: Only the upper triangle is calculated.
                                 Final output is symmetrized.
  Analytical stress calculation: scf convergence accuracy of stress not set.
                                 Analytical stress self-consistency will not be checked explicitly.
                                 Be sure to set other criteria like sc_accuracy_rho tight enough.
  Forces evaluation will include force correction term due to incomplete self-consistency (default).
 * Notice: The s.c.f. convergence criterion sc_accuracy_rho was not provided.
 * We used to stop in this case, and ask the user to provide reasonable
 * scf convergence criteria. However, this led some users to employ criteria
 * that led to extremely long run times, e.g., for simple relaxation.
 * We now preset a default value for sc_accuracy_rho if it is not set.
 * You may still wish to check if this setting is too tight or too loose for your needs.
 * Based on n_atoms and forces and force-correction status, FHI-aims chose sc_accuracy_rho =  0.100000E-05 .
  Force calculation: scf convergence accuracy of forces not set.
  Defaulting to 'sc_accuracy_forces not_checked'.
  Handling of forces: Unphysical translation and rotation will be removed from forces.
  No accuracy limit for integral partition fn. given. Defaulting to  0.1000E-14.
  No threshold value for u(r) in integrations given. Defaulting to  0.1000E-05.
  No occupation type (smearing scheme) given. Defaulting to Gaussian broadening, width =  0.1000E-01 eV.
  The width will be adjusted in iteration number     2 of each s.c.f. cycle (i.e., each geometry step).
  No accuracy for occupation numbers given. Defaulting to  0.1000E-12.
  No threshold value for occupation numbers given. Defaulting to  0.0000E+00.
  No accuracy for fermi level given. Defaulting to  0.1000E-19.
  Maximum # of iterations to find E_F not set. Defaulting to  200.
  Preferred method for the eigenvalue solver ('KS_method') not specified in 'control.in'.
  Defaulting to serial version, LAPACK (via ELSI), since more k-points than CPUs available.
  Will not use alltoall communication since running on < 1024 CPUs.
  Threshold for basis singularities not set.
  Default threshold for basis singularities:  0.1000E-04
  partition_type (choice of integration weights) for integrals was not specified.
  | Using a version of the partition function of Stratmann and coworkers ('stratmann_sparse').
  | At each grid point, the set of atoms used to build the partition table is smoothly restricted to
  | only those atoms whose free-atom density would be non-zero at that grid point.
  Partitioning for Hartree potential was not defined. Using partition_type for integrals.
  | Adjusted default value of keyword multip_moments_threshold to:       0.10000000E-11
  | This value may affect high angular momentum components of the Hartree potential in periodic systems.
  Spin handling was not defined in control.in. Defaulting to unpolarized case.
  No q(lm)/r^(l+1) cutoff set for long-range Hartree potential.
  | Using default value of  0.100000E-09 .
  | Verify using the multipole_threshold keyword.
  Defaulting to new monopole extrapolation.
  Density update method: automatic selection selected.
  Using density matrix based charge density update.
  Using density matrix based charge density update.
  Using packed matrix style: index .
  Geometry relaxation: A file "geometry.in.next_step" is written out by default after each step.
  | This file contains the geometry of the current relaxation step as well as
  | the current Hessian matrix needed to restart the relaxation algorithm.
  | If you do not want part or all of this information, use the keywords
  | "write_restart_geometry" or "hessian_to_restart_geometry" to switch the output off.
  Defaulting to use time-reversal symmetry for k-point grid.
  Charge integration errors on the 3D integration grid will be compensated
  by explicit normalization and distribution of residual charges.
  Use the "compensate_multipole_errors" flag to change this behaviour.
  Set 'collect_eigenvectors' to be '.true.' for all serial calculations. This is mandatory.
  Set 'collect_eigenvectors' to be '.true.' for KS_method lapack_fast and serial.
  Found potential conflicts with setting 'use_local_index' for this calculation. Will not set it.
 
  Consistency checks for the contents of geometry.in are next.
 

  Range separation radius for Ewald summation (hartree_convergence_parameter):      3.02465203 bohr.
  Number of empty states per atom not set in control.in - providing a guess from actual geometry.
  | Total number of empty states used during s.c.f. cycle:       23
  If you use a very high smearing, use empty_states (per atom!) in control.in to increase this value.

  Structure-dependent array size parameters: 
  | Maximum number of distinct radial functions  :       17
  | Maximum number of basis functions            :      118
  | Number of Kohn-Sham states (occupied + empty):       61
------------------------------------------------------------
  After read_input_data [GB]:   1045.69

  Performing system and environment tests:
  *** Environment variable OMP_NUM_THREADS is not set
  *** For performance reasons you might want to set it to 1
  | Checking for ScaLAPACK...
  | Testing pdtran()...
  | All pdtran() tests passed.
  After prepare_system [GB]:   1045.56

------------------------------------------------------------
          Preparing all fixed parts of the calculation.
------------------------------------------------------------
  Determining machine precision:
    2.225073858507201E-308
  Setting up grids for atomic and cluster calculations.

  Creating wave function, potential, and density for free atoms.
  Runtime choices for atomic solver:
  | atomic solver xc        : PBE
  | compute density gradient: 1
  | compute kinetic density : F

  Species: Ti

  List of occupied orbitals and eigenvalues:
    n    l              occ      energy [Ha]    energy [eV]
    1    0           2.0000      -179.959082     -4896.9358
    2    0           2.0000       -19.727662      -536.8170
    3    0           2.0000        -2.283029       -62.1244
    4    0           2.0000        -0.148384        -4.0377
    2    1           6.0000       -16.317278      -444.0157
    3    1           6.0000        -1.409348       -38.3503
    3    2           2.0000        -0.139340        -3.7916


  Species: O

  List of occupied orbitals and eigenvalues:
    n    l              occ      energy [Ha]    energy [eV]
    1    0           2.0000       -18.926989      -515.0296
    2    0           2.0000        -0.880247       -23.9527
    2    1           4.0000        -0.331514        -9.0210


  Adding cutoff potential to free-atom effective potential.
  Creating fixed part of basis set: Ionic, confined, hydrogenic.
 
  Ti                   ion:

  List of free ionic orbitals and eigenvalues:
    n    l      energy [Ha]    energy [eV]
    1    0      -180.819616     -4920.3521
    2    0       -20.608761      -560.7929
    3    0        -3.115729       -84.7833
    4    0        -0.697188       -18.9715
    2    1       -17.196209      -467.9327
    3    1        -2.231296       -60.7167
    3    2        -0.911363       -24.7995


  List of ionic basis orbitals and eigenvalues:
    n    l      energy [Ha]    energy [eV]    outer radius [A]
    4    1        -0.517739       -14.0884       4.592117
    4    0        -0.696824       -18.9615       4.536321

 
  Ti                   hydrogenic:
 
  List of hydrogenic basis orbitals: 
    n    l      effective z      eigenvalue [eV]  inner max. [A]     outer max. [A]     outer radius [A]   
    4    3         8.000000       -54.4222           1.059019           1.059019           4.267343
    3    2         2.700000       -10.7798           1.726925           1.726925           4.592117
 
 
  O                    hydrogenic:
 
  List of hydrogenic basis orbitals: 
    n    l      effective z      eigenvalue [eV]  inner max. [A]     outer max. [A]     outer radius [A]   
    2    1         1.800000       -10.9749           1.164242           1.164242           4.578029
    3    2         7.600000       -87.3180           0.624125           0.624125           3.251020
    3    0         6.400000       -61.9207           0.061167           1.081902           4.001998
 
  Creating atomic-like basis functions for current effective potential.

  Species Ti                  :

  List of atomic basis orbitals and eigenvalues:
    n    l      energy [Ha]    energy [eV]    outer radius [A]
    1    0      -179.959082     -4896.9358       0.490254
    2    0       -19.727662      -536.8170       1.491292
    3    0        -2.283029       -62.1244       4.014314
    4    0        -0.148384        -4.0377       4.592117
    2    1       -16.317278      -444.0157       1.585290
    3    1        -1.409348       -38.3503       4.267343
    3    2        -0.139340        -3.7916       4.536321


  Species O                   :

  List of atomic basis orbitals and eigenvalues:
    n    l      energy [Ha]    energy [eV]    outer radius [A]
    1    0       -18.926989      -515.0296       1.415765
    2    0        -0.880247       -23.9527       4.413171
    2    1        -0.331514        -9.0210       4.522403

  Assembling full basis from fixed parts.
  | Species Ti :   atomic orbital   1 s accepted.
  | Species Ti :   atomic orbital   2 s accepted.
  | Species Ti :   atomic orbital   3 s accepted.
  | Species Ti :    ionic orbital   4 s accepted.
  | Species Ti :   atomic orbital   4 s accepted.
  | Species Ti :   atomic orbital   2 p accepted.
  | Species Ti :   atomic orbital   3 p accepted.
  | Species Ti :    ionic orbital   4 p accepted.
  | Species Ti :   atomic orbital   3 d accepted.
  | Species Ti :    hydro orbital   3 d accepted.
  | Species Ti :    hydro orbital   4 f accepted.
  | Species O :   atomic orbital   1 s accepted.
  | Species O :    hydro orbital   3 s accepted.
  | Species O :   atomic orbital   2 s accepted.
  | Species O :   atomic orbital   2 p accepted.
  | Species O :    hydro orbital   2 p accepted.
  | Species O :    hydro orbital   3 d accepted.
 
  Basis size parameters after reduction:
  | Total number of radial functions:       17
  | Total number of basis functions :      118
 
  Per-task memory consumption for arrays in subroutine allocate_ext:
  |           6.022728MB.
  Testing on-site integration grid accuracy.
  |  Species  Function  <phi|h_atom|phi> (log., in eV)  <phi|h_atom|phi> (rad., in eV)
           1        1              -4896.9357674450              -4896.9322830202
           1        2               -536.8170048508               -536.8169722333
           1        3                -62.1243896260                -62.1243889283
           1        4                 -3.2653235630                 -3.2692838808
           1        5                  6.7987747276                  6.5460721883 ***
           1        6               -444.0157161949               -444.0157165810
           1        7                -38.3503235548                -38.3503234963
           1        8                  0.2923930877                  0.2745948116
           1        9                 -3.7933400649                 -3.7959244177
           1       10                  6.3288803616                  6.2510614929 ***
           1       11                 27.8451455747                 27.8452636416
           2       12               -515.0295626295               -515.0294562738
           2       13                 15.1698434419                 15.1699322204
           2       14                -21.6038822678                -21.6039118105
           2       15                 -9.0211123393                 -9.0212703513
           2       16                  8.3047696391                  8.2854840999
           2       17                 45.8428042125                 45.8427461222
 * Note: Onsite integrals marked "***" above are less accurate than
 * onsite_accuracy_threshold =    0.03000 eV. Usually, this is harmless.
 * When in doubt, tighten the "radial" and/or "radial_multiplier" flags to check.

  Preparing densities etc. for the partition functions (integrals / Hartree potential).

  Preparations completed.
  max(cpu_time)          :      0.207 s.
  Wall clock time (cpu1) :      0.206 s.
------------------------------------------------------------
  After prepare_scf [GB]:   1045.19

  Initializing index lists of integration centers etc. from given atomic structure:
  Mapping all atomic coordinates to central unit cell.

  Initializing the k-points
  Using symmetry for reducing the k-points
  | k-points reduced from:       64 to       36
  | Number of k-points                             :        36
  The eigenvectors in the calculations are COMPLEX.
  | K-points in task   0:         1
  | K-points in task   1:         2
  | K-points in task   2:         2
  | K-points in task   3:         2
  | K-points in task   4:         2
  | K-points in task   5:         2
  | K-points in task   6:         2
  | K-points in task   7:         2
  | K-points in task   8:         2
  | K-points in task   9:         2
  | K-points in task  10:         2
  | K-points in task  11:         2
  | K-points in task  12:         2
  | K-points in task  13:         1
  | K-points in task  14:         1
  | K-points in task  15:         1
  | K-points in task  16:         1
  | K-points in task  17:         1
  | K-points in task  18:         1
  | K-points in task  19:         1
  | K-points in task  20:         1
  | K-points in task  21:         1
  | K-points in task  22:         1
  | K-points in task  23:         1
  | Number of basis functions in the Hamiltonian integrals :      2803
  | Number of basis functions in a single unit cell        :       118
  | Number of centers in hartree potential         :      1194
  | Number of centers in hartree multipole         :       795
  | Number of centers in electron density summation:       568
  | Number of centers in basis integrals           :       613
  | Number of centers in integrals                 :       197
  | Number of centers in hamiltonian               :       582
  | Consuming         79 KiB for k_phase.
  | Number of super-cells (origin) [n_cells]                     :         891
  | Number of super-cells (after PM_index) [n_cells]             :         142
  | Number of super-cells in hamiltonian [n_cells_in_hamiltonian]:         142
  | Size of matrix packed + index [n_hamiltonian_matrix_size] :      272239
  After initialize_bc_dependent_lists [GB]:   1045.13

------------------------------------------------------------
          Begin self-consistency loop: Initialization.

          Date     :  20240710, Time     :  231900.476
------------------------------------------------------------

  Initializing relaxation algorithms.
  Finished initialization of distributed Hessian storage.
  | Global dimension:        27
  | BLACS block size:         2
  | Number of workers:       14

  Available memory per node after initialize_hartree_non_periodic_ewald [GB]:   1045.13
  | Estimated reciprocal-space cutoff momentum G_max:         3.12346377 bohr^-1 .
  | Reciprocal lattice points for long-range Hartree potential:     208
  Available memory per node after initialize_recip_hartree_potential [GB]:   1045.13
  Available memory per node after initialize_scalapack [GB]:   1045.13
  Available memory per node after aims_elsi_init_scf [GB]:   1045.13
  Available memory per node after initialize_fixed_grids [GB]:   1045.13
  Partitioning the integration grid into batches with parallel hashing+maxmin method.
  | Number of batches:      491
  | Maximal batch size:     115
  | Minimal batch size:      56
  | Average batch size:      78.061
  | Standard deviation of batch sizes:      12.658

  Integration load balanced across    24 MPI tasks.
  Work distribution over tasks is as follows:
  Task     0 has       1555 integration points.
  Task     1 has       1631 integration points.
  Task     2 has       1641 integration points.
  Task     3 has       1562 integration points.
  Task     4 has       1603 integration points.
  Task     5 has       1544 integration points.
  Task     6 has       1554 integration points.
  Task     7 has       1570 integration points.
  Task     8 has       1625 integration points.
  Task     9 has       1616 integration points.
  Task    10 has       1603 integration points.
  Task    11 has       1596 integration points.
  Task    12 has       1616 integration points.
  Task    13 has       1561 integration points.
  Task    14 has       1631 integration points.
  Task    15 has       1564 integration points.
  Task    16 has       1606 integration points.
  Task    17 has       1619 integration points.
  Task    18 has       1604 integration points.
  Task    19 has       1618 integration points.
  Task    20 has       1565 integration points.
  Task    21 has       1611 integration points.
  Task    22 has       1611 integration points.
  Task    23 has       1622 integration points.
  Available memory per node after partition_grid [GB]:   1045.13
  Initializing partition tables, free-atom densities, potentials, etc. across the integration grid (initialize_grid_storage).
  | initialize_grid_storage: Actual outermost partition radius vs. multipole_radius_free
  | (-- VB: in principle, multipole_radius_free should be larger, hence this output)
  | Species        1: Confinement radius =              4.999999999999999 AA, multipole_radius_free =              5.002391649902235 AA.
  | Species        1: outer_partition_radius set to              5.002391649902235 AA .
  | Species        2: Confinement radius =              4.999999999999999 AA, multipole_radius_free =              5.048384829883283 AA.
  | Species        2: outer_partition_radius set to              5.048384829883283 AA .
  | The sparse table of interatomic distances needs       1595.53 kbyte instead of      3006.15 kbyte of memory.
  | Net number of integration points:    38328
  | of which are non-zero points    :    31144
  | Numerical average free-atom electrostatic potential    :    -18.17617952 eV
  Available memory per node after initialize_grid_storage_p1 [GB]:   1045.09
  Renormalizing the initial density to the exact electron count on the 3D integration grid.
  | Initial density: Formal number of electrons (from input files) :      76.0000000000
  | Integrated number of electrons on 3D grid     :      75.9997063041
  | Charge integration error                      :      -0.0002936959
  | Normalization factor for density and gradient :       1.0000038644
  Renormalizing the free-atom superposition density to the exact electron count on the 3D integration grid.
  | Formal number of electrons (from input files) :      76.0000000000
  | Integrated number of electrons on 3D grid     :      75.9997063041
  | Charge integration error                      :      -0.0002936959
  | Normalization factor for density and gradient :       1.0000038644
  Obtaining max. number of non-zero basis functions in each batch (get_n_compute_maxes).
  | Maximal number of non-zero basis functions:      871 in task     0
  | Maximal number of non-zero basis functions:      846 in task     1
  | Maximal number of non-zero basis functions:      865 in task     2
  | Maximal number of non-zero basis functions:      882 in task     3
  | Maximal number of non-zero basis functions:      830 in task     4
  | Maximal number of non-zero basis functions:      805 in task     5
  | Maximal number of non-zero basis functions:      784 in task     6
  | Maximal number of non-zero basis functions:      816 in task     7
  | Maximal number of non-zero basis functions:      806 in task     8
  | Maximal number of non-zero basis functions:      838 in task     9
  | Maximal number of non-zero basis functions:      876 in task    10
  | Maximal number of non-zero basis functions:      837 in task    11
  | Maximal number of non-zero basis functions:      836 in task    12
  | Maximal number of non-zero basis functions:      804 in task    13
  | Maximal number of non-zero basis functions:      857 in task    14
  | Maximal number of non-zero basis functions:      859 in task    15
  | Maximal number of non-zero basis functions:      902 in task    16
  | Maximal number of non-zero basis functions:      895 in task    17
  | Maximal number of non-zero basis functions:      883 in task    18
  | Maximal number of non-zero basis functions:      895 in task    19
  | Maximal number of non-zero basis functions:      877 in task    20
  | Maximal number of non-zero basis functions:      817 in task    21
  | Maximal number of non-zero basis functions:      813 in task    22
  | Maximal number of non-zero basis functions:      890 in task    23
  Available memory per node after get_n_compute_maxes_p1 [GB]:   1045.08
  Allocating        0.110 MB for KS_eigenvector_complex
  Available memory per node after allocate_matrices [GB]:   1045.08
  Available memory per node after init_comm_sparse_local_matrix_scalapack [GB]:   1045.08
  Integrating Hamiltonian matrix: batch-based integration.
  Time summed over all CPUs for integration: real work        2.565 s, elapsed        2.704 s
  Available memory per node after integrate hamiltonian matrix [GB]:   1044.81
  Integrating overlap matrix.
  Time summed over all CPUs for integration: real work        1.736 s, elapsed        1.837 s
  Available memory per node after integrate ovlp matrix [GB]:   1044.72
  Available memory per node after ASI_callbacks invoke [GB]:   1044.72
  Available memory per node after save_overlap_scalapack [GB]:   1044.72

  Updating Kohn-Sham eigenvalues and eigenvectors using ELSI and the (modified) LAPACK eigensolver.
  Singularity check in k-point 24, task 0 (analysis for other k-points/tasks may follow below):
  Overlap matrix is not singular
  | Lowest and highest eigenvalues :  0.5149E-03,  0.7947E+01
  Finished singularity check of overlap matrix
  | Time :     0.003 s
  Starting LAPACK eigensolver
  Finished Cholesky decomposition
  | Time :     0.000 s
  Finished transformation to standard eigenproblem
  | Time :     0.001 s
  Finished solving standard eigenproblem
  | Time :     0.002 s
  Finished back-transformation of eigenvectors
  | Time :     0.000 s

  Obtaining occupation numbers and electronic chemical potential using ELSI.
  | Note that, for insulating systems, the printed 'chemical potential' value is not uniquely defined.
  | It can be anywhere in the energy gap, as long as it correctly separates occupied and unoccupied states.
  | In systems with a gap, the physically relevant chemical potential is the VBM or HOMO.

  | Chemical potential (Fermi level):    -7.16234501 eV
  Available memory per node after advance_KS_solution [GB]:   1044.71
  Writing Kohn-Sham eigenvalues.
  K-point:       1 at    0.000000    0.000000    0.000000 (in units of recip. lattice)

  State    Occupation    Eigenvalue [Ha]    Eigenvalue [eV]
      1       2.00000        -180.020698        -4898.61244
      2       2.00000        -179.964873        -4897.09335
      3       2.00000         -19.795616         -538.66611
      4       2.00000         -19.734063         -536.99117
      5       2.00000         -19.195684         -522.34114
      6       2.00000         -19.195682         -522.34108
      7       2.00000         -19.041045         -518.13320
      8       2.00000         -19.041045         -518.13320
      9       2.00000         -16.389407         -445.97845
     10       2.00000         -16.381593         -445.76582
     11       2.00000         -16.381262         -445.75683
     12       2.00000         -16.323673         -444.18973
     13       2.00000         -16.323617         -444.18822
     14       2.00000         -16.323419         -444.18284
     15       2.00000          -2.471608          -67.25587
     16       2.00000          -2.297986          -62.53137
     17       2.00000          -1.855859          -50.50048
     18       2.00000          -1.530631          -41.65059
     19       2.00000          -1.526612          -41.54122
     20       2.00000          -1.437306          -39.11107
     21       2.00000          -1.423923          -38.74691
     22       2.00000          -1.420578          -38.65588
     23       2.00000          -1.150697          -31.31205
     24       2.00000          -1.067788          -29.05600
     25       2.00000          -1.014237          -27.59878
     26       2.00000          -0.921336          -25.07082
     27       2.00000          -0.714068          -19.43078
     28       2.00000          -0.683026          -18.58608
     29       2.00000          -0.675788          -18.38912
     30       2.00000          -0.583437          -15.87614
     31       2.00000          -0.546937          -14.88291
     32       2.00000          -0.546589          -14.87344
     33       2.00000          -0.534627          -14.54794
     34       2.00000          -0.469453          -12.77445
     35       2.00000          -0.469415          -12.77343
     36       2.00000          -0.461530          -12.55887
     37       2.00000          -0.457161          -12.43999
     38       2.00000          -0.269207           -7.32550
     39       0.00000          -0.251762           -6.85079
     40       0.00000          -0.223124           -6.07151
     41       0.00000          -0.168691           -4.59030
     42       0.00000          -0.150893           -4.10601
     43       0.00000          -0.146186           -3.97793
     44       0.00000          -0.141091           -3.83927
     45       0.00000          -0.075126           -2.04429
     46       0.00000          -0.070598           -1.92107
     47       0.00000          -0.058823           -1.60066
     48       0.00000          -0.044349           -1.20679
     49       0.00000           0.079664            2.16776
     50       0.00000           0.083687            2.27725
     51       0.00000           0.085682            2.33152
     52       0.00000           0.165040            4.49097
     53       0.00000           0.236182            6.42684
     54       0.00000           0.290807            7.91325
     55       0.00000           0.312049            8.49128
     56       0.00000           0.370841           10.09111
     57       0.00000           0.418531           11.38881
     58       0.00000           0.615074           16.73702
     59       0.00000           0.676983           18.42165
     60       0.00000           0.693537           18.87211
     61       0.00000           0.696407           18.95020

  What follows are estimated values for band gap, HOMO, LUMO, etc.
  | They are estimated on a discrete k-point grid and not necessarily exact.
  | For converged numbers, create a DOS and/or band structure plot on a denser k-grid.

  Highest occupied state (VBM) at     -7.32550425 eV (relative to internal zero)
  | Occupation number:      2.00000000
  | K-point:       1 at    0.000000    0.000000    0.000000 (in units of recip. lattice)

  Lowest unoccupied state (CBM) at    -7.07295186 eV (relative to internal zero)
  | Occupation number:      0.00000000
  | K-point:      29 at    0.500000    0.500000    0.000000 (in units of recip. lattice)

  ESTIMATED overall HOMO-LUMO gap:      0.25255239 eV between HOMO at k-point 1 and LUMO at k-point 29
  | This appears to be an indirect band gap.
  | Smallest direct gap :      0.30390560 eV for k_point 29 at    0.500000    0.500000    0.000000 (in units of recip. lattice)
  The gap value is above 0.2 eV. Unless you are using a very sparse k-point grid,
  this system is most likely an insulator or a semiconductor.
  Calculating total energy contributions from superposition of free atom densities.

  Total energy components:
  | Sum of eigenvalues            :       -1197.39582277 Ha      -32582.79813207 eV
  | XC energy correction          :        -118.68850972 Ha       -3229.67867373 eV
  | XC potential correction       :         153.49934545 Ha        4176.92970959 eV
  | Free-atom electrostatic energy:        -850.80121301 Ha      -23151.47894030 eV
  | Hartree energy correction     :           0.00000000 Ha           0.00000000 eV
  | Entropy correction            :          -0.00000000 Ha          -0.00000000 eV
  | ---------------------------
  | Total energy                  :       -2013.38620005 Ha      -54787.02603651 eV
  | Total energy, T -> 0          :       -2013.38620005 Ha      -54787.02603651 eV  <-- do not rely on this value for anything but (periodic) metals
  | Electronic free energy        :       -2013.38620005 Ha      -54787.02603651 eV

  Derived energy quantities:
  | Kinetic energy                :        2028.75477750 Ha       55205.22630686 eV
  | Electrostatic energy          :       -3923.45246783 Ha     -106762.57366964 eV
  | Energy correction for multipole
  | error in Hartree potential    :           0.00000000 Ha           0.00000000 eV
  | Sum of eigenvalues per atom                           :       -5430.46635534 eV
  | Total energy (T->0) per atom                          :       -9131.17100608 eV  <-- do not rely on this value for anything but (periodic) metals
  | Electronic free energy per atom                       :       -9131.17100608 eV
  Initialize hartree_potential_storage
  Max. number of atoms included in rho_multipole:            6

  End scf initialization - timings             :  max(cpu_time)    wall_clock(cpu1)
  | Time for scf. initialization                :        0.335 s           0.335 s
  | Boundary condition initialization           :        0.026 s           0.026 s
  | Relaxation initialization                   :        0.005 s           0.005 s
  | Integration                                 :        0.205 s           0.205 s
  | Solution of K.-S. eqns.                     :        0.015 s           0.015 s
  | Grid partitioning                           :        0.016 s           0.016 s
  | Preloading free-atom quantities on grid     :        0.084 s           0.085 s
  | Free-atom superposition energy              :        0.009 s           0.009 s
  | Total energy evaluation                     :        0.000 s           0.000 s

  Partial memory accounting:
  | Current value for overall tracked memory usage:
  |   Minimum:        5.352 MB (on task 13)
  |   Maximum:        5.462 MB (on task  1)
  |   Average:        5.407 MB
  | Peak value for overall tracked memory usage:
  |   Minimum:       12.233 MB (on task  6 after allocating wave)
  |   Maximum:       13.954 MB (on task 16 after allocating wave)
  |   Average:       13.175 MB
  | Largest tracked array allocation so far:
  |   Minimum:        4.689 MB (hamiltonian_shell on task  6)
  |   Maximum:        6.207 MB (hamiltonian_shell on task 16)
  |   Average:        5.512 MB
  Note:  These values currently only include a subset of arrays which are explicitly tracked.
  The "true" memory usage will be greater.
------------------------------------------------------------
  Available memory after initialize_scf [GB]:   1044.71
  Available memory after allocating mixing [GB]:   1044.71
  Evaluating new KS density using the density matrix
  Evaluating density matrix
  Time summed over all CPUs for getting density from density matrix: real work        5.356 s, elapsed        5.679 s
  Integration grid: deviation in total charge (<rho> - N_e) =   0.000000E+00

  Time for density update prior                :  max(cpu_time)    wall_clock(cpu1)
  | self-consistency iterative process          :        0.242 s           0.242 s
  Available memory before start of SCF loop [GB]:   1044.60

------------------------------------------------------------
          Begin self-consistency iteration #    1

  Date     :  20240710, Time     :  231901.053
------------------------------------------------------------
  Pulay mixing of updated and previous charge densities.
  Available memory per node after mixing [GB]:   1044.60
  Renormalizing the density to the exact electron count on the 3D integration grid.
  | Formal number of electrons (from input files) :      76.0000000000
  | Integrated number of electrons on 3D grid     :      76.0000000000
  | Charge integration error                      :       0.0000000000
  | Normalization factor for density and gradient :       1.0000000000

  Evaluating partitioned Hartree potential by multipole expansion.
  | Original multipole sum: apparent total charge =   0.360726E-13
  | Sum of charges compensated after spline to logarithmic grids =   0.205164E-06
  | Analytical far-field extrapolation by fixed multipoles:
  | Hartree multipole sum: apparent total charge =   0.359342E-13
  Summing up the Hartree potential.
  Time summed over all CPUs for potential: real work        0.023 s, elapsed        0.024 s
  | RMS charge density error from multipole expansion :   0.146215E-02
  | Average real-space part of the electrostatic potential :      0.09400747 eV

  Integrating Hamiltonian matrix: batch-based integration.
  Time summed over all CPUs for integration: real work        2.527 s, elapsed        2.666 s

  Updating Kohn-Sham eigenvalues and eigenvectors using ELSI and the (modified) LAPACK eigensolver.
  Starting LAPACK eigensolver
  Finished Cholesky decomposition
  | Time :     0.000 s
  Finished transformation to standard eigenproblem
  | Time :     0.001 s
  Finished solving standard eigenproblem
  | Time :     0.002 s
  Finished back-transformation of eigenvectors
  | Time :     0.000 s

  Obtaining occupation numbers and electronic chemical potential using ELSI.
  | Note that, for insulating systems, the printed 'chemical potential' value is not uniquely defined.
  | It can be anywhere in the energy gap, as long as it correctly separates occupied and unoccupied states.
  | In systems with a gap, the physically relevant chemical potential is the VBM or HOMO.

  | Chemical potential (Fermi level):    -6.79341859 eV
  Writing Kohn-Sham eigenvalues.
  K-point:       1 at    0.000000    0.000000    0.000000 (in units of recip. lattice)

  State    Occupation    Eigenvalue [Ha]    Eigenvalue [eV]
      1       2.00000        -180.023841        -4898.69797
      2       2.00000        -179.992646        -4897.84910
      3       2.00000         -19.791254         -538.54742
      4       2.00000         -19.770885         -537.99315
      5       2.00000         -19.143208         -520.91318
      6       2.00000         -19.143206         -520.91315
      7       2.00000         -18.997410         -516.94583
      8       2.00000         -18.997410         -516.94583
      9       2.00000         -16.381242         -445.75629
     10       2.00000         -16.381046         -445.75094
     11       2.00000         -16.381001         -445.74971
     12       2.00000         -16.363650         -445.27757
     13       2.00000         -16.356772         -445.09041
     14       2.00000         -16.356520         -445.08356
     15       2.00000          -2.449091          -66.64316
     16       2.00000          -2.340625          -63.69164
     17       2.00000          -1.828673          -49.76073
     18       2.00000          -1.511540          -41.13109
     19       2.00000          -1.506116          -40.98350
     20       2.00000          -1.475573          -40.15238
     21       2.00000          -1.464754          -39.85797
     22       2.00000          -1.462706          -39.80227
     23       2.00000          -1.124423          -30.59710
     24       2.00000          -1.046810          -28.48516
     25       2.00000          -0.993547          -27.03578
     26       2.00000          -0.901914          -24.54234
     27       2.00000          -0.691911          -18.82785
     28       2.00000          -0.658119          -17.90833
     29       2.00000          -0.656613          -17.86736
     30       2.00000          -0.567637          -15.44619
     31       2.00000          -0.522401          -14.21526
     32       2.00000          -0.522249          -14.21111
     33       2.00000          -0.513854          -13.98268
     34       2.00000          -0.449377          -12.22816
     35       2.00000          -0.448726          -12.21045
     36       2.00000          -0.438807          -11.94053
     37       2.00000          -0.437739          -11.91148
     38       2.00000          -0.270680           -7.36559
     39       0.00000          -0.244638           -6.65693
     40       0.00000          -0.219045           -5.96053
     41       0.00000          -0.188706           -5.13494
     42       0.00000          -0.175435           -4.77383
     43       0.00000          -0.175127           -4.76546
     44       0.00000          -0.161260           -4.38810
     45       0.00000          -0.074632           -2.03084
     46       0.00000          -0.065135           -1.77242
     47       0.00000          -0.048530           -1.32058
     48       0.00000          -0.029772           -0.81014
     49       0.00000           0.079600            2.16602
     50       0.00000           0.081455            2.21649
     51       0.00000           0.088513            2.40856
     52       0.00000           0.169974            4.62522
     53       0.00000           0.232770            6.33398
     54       0.00000           0.294255            8.00708
     55       0.00000           0.321391            8.74550
     56       0.00000           0.376444           10.24356
     57       0.00000           0.407357           11.08475
     58       0.00000           0.633863           17.24828
     59       0.00000           0.689053           18.75010
     60       0.00000           0.705665           19.20212
     61       0.00000           0.715599           19.47245

  What follows are estimated values for band gap, HOMO, LUMO, etc.
  | They are estimated on a discrete k-point grid and not necessarily exact.
  | For converged numbers, create a DOS and/or band structure plot on a denser k-grid.

  Highest occupied state (VBM) at     -6.92747443 eV (relative to internal zero)
  | Occupation number:      2.00000000
  | K-point:       9 at    0.000000    0.500000    0.500000 (in units of recip. lattice)

  Lowest unoccupied state (CBM) at    -6.72155197 eV (relative to internal zero)
  | Occupation number:      0.00000000
  | K-point:      29 at    0.500000    0.500000    0.000000 (in units of recip. lattice)

  ESTIMATED overall HOMO-LUMO gap:      0.20592246 eV between HOMO at k-point 9 and LUMO at k-point 29
  | This appears to be an indirect band gap.
  | Smallest direct gap :      0.64628335 eV for k_point 14 at    0.250000    0.250000    0.000000 (in units of recip. lattice)
  The gap value is above 0.2 eV. Unless you are using a very sparse k-point grid,
  this system is most likely an insulator or a semiconductor.

  Total energy components:
  | Sum of eigenvalues            :       -1196.82688695 Ha      -32567.31660081 eV
  | XC energy correction          :        -118.76904826 Ha       -3231.87023900 eV
  | XC potential correction       :         153.60310927 Ha        4179.75326668 eV
  | Free-atom electrostatic energy:        -850.80121301 Ha      -23151.47894030 eV
  | Hartree energy correction     :          -0.44117463 Ha         -12.00497241 eV
  | Entropy correction            :          -0.00000000 Ha          -0.00000000 eV
  | ---------------------------
  | Total energy                  :       -2013.23521359 Ha      -54782.91748584 eV
  | Total energy, T -> 0          :       -2013.23521359 Ha      -54782.91748584 eV  <-- do not rely on this value for anything but (periodic) metals
  | Electronic free energy        :       -2013.23521359 Ha      -54782.91748584 eV

  Derived energy quantities:
  | Kinetic energy                :        2029.47001836 Ha       55224.68900073 eV
  | Electrostatic energy          :       -3923.93618368 Ha     -106775.73624757 eV
  | Energy correction for multipole
  | error in Hartree potential    :           0.00149443 Ha           0.04066543 eV
  | Sum of eigenvalues per atom                           :       -5427.88610013 eV
  | Total energy (T->0) per atom                          :       -9130.48624764 eV  <-- do not rely on this value for anything but (periodic) metals
  | Electronic free energy per atom                       :       -9130.48624764 eV
  Evaluating new KS density using the density matrix
  Evaluating density matrix
  Time summed over all CPUs for getting density from density matrix: real work        5.227 s, elapsed        5.515 s
  Integration grid: deviation in total charge (<rho> - N_e) =   1.421085E-14

  Self-consistency convergence accuracy:
  | Change of charge density      :  0.8402E+00
  | Change of unmixed KS density  :  0.7221E+02
  | Change of sum of eigenvalues  :  0.1548E+02 eV
  | Change of total energy        :  0.4109E+01 eV


------------------------------------------------------------
  End self-consistency iteration #     1       :  max(cpu_time)    wall_clock(cpu1)
  | Time for this iteration                     :        0.387 s           0.387 s
  | Charge density update                       :        0.234 s           0.233 s
  | Density mixing                              :        0.000 s           0.000 s
  | Hartree multipole update                    :        0.001 s           0.001 s
  | Hartree multipole summation                 :        0.026 s           0.027 s
  | Integration                                 :        0.115 s           0.115 s
  | Solution of K.-S. eqns.                     :        0.010 s           0.010 s
  | Total energy evaluation                     :        0.000 s           0.001 s

  Partial memory accounting:
  | Current value for overall tracked memory usage:
  |   Minimum:        6.218 MB (on task  0)
  |   Maximum:        6.376 MB (on task  2)
  |   Average:        6.297 MB
  | Peak value for overall tracked memory usage:
  |   Minimum:       15.144 MB (on task  6 after allocating gradient_basis_wave)
  |   Maximum:       17.202 MB (on task 16 after allocating gradient_basis_wave)
  |   Average:       16.280 MB
  | Largest tracked array allocation so far:
  |   Minimum:        4.689 MB (hamiltonian_shell on task  6)
  |   Maximum:        6.207 MB (hamiltonian_shell on task 16)
  |   Average:        5.512 MB
  Note:  These values currently only include a subset of arrays which are explicitly tracked.
  The "true" memory usage will be greater.
------------------------------------------------------------

------------------------------------------------------------
          Begin self-consistency iteration #    2

  Date     :  20240710, Time     :  231901.441
------------------------------------------------------------
  Pulay mixing of updated and previous charge densities.
  Available memory per node after mixing [GB]:   1044.56
  Renormalizing the density to the exact electron count on the 3D integration grid.
  | Formal number of electrons (from input files) :      76.0000000000
  | Integrated number of electrons on 3D grid     :      76.0000000000
  | Charge integration error                      :       0.0000000000
  | Normalization factor for density and gradient :       1.0000000000

  Evaluating partitioned Hartree potential by multipole expansion.
  | Original multipole sum: apparent total charge =   0.585672E-13
  | Sum of charges compensated after spline to logarithmic grids =   0.505287E-06
  | Analytical far-field extrapolation by fixed multipoles:
  | Hartree multipole sum: apparent total charge =   0.579154E-13
  Summing up the Hartree potential.
  Time summed over all CPUs for potential: real work        0.024 s, elapsed        0.025 s
  | RMS charge density error from multipole expansion :   0.575247E-02
  | Average real-space part of the electrostatic potential :      0.35932382 eV

  Integrating Hamiltonian matrix: batch-based integration.
  Time summed over all CPUs for integration: real work        2.526 s, elapsed        2.662 s

  Updating Kohn-Sham eigenvalues and eigenvectors using ELSI and the (modified) LAPACK eigensolver.
  Starting LAPACK eigensolver
  Finished Cholesky decomposition
  | Time :     0.001 s
  Finished transformation to standard eigenproblem
  | Time :     0.000 s
  Finished solving standard eigenproblem
  | Time :     0.003 s
  Finished back-transformation of eigenvectors
  | Time :     0.000 s

  Obtaining occupation numbers and electronic chemical potential using ELSI.
  | Note that, for insulating systems, the printed 'chemical potential' value is not uniquely defined.
  | It can be anywhere in the energy gap, as long as it correctly separates occupied and unoccupied states.
  | In systems with a gap, the physically relevant chemical potential is the VBM or HOMO.

  | Chemical potential (Fermi level):    -7.79628411 eV
  What follows are estimated values for band gap, HOMO, LUMO, etc.
  | They are estimated on a discrete k-point grid and not necessarily exact.
  | For converged numbers, create a DOS and/or band structure plot on a denser k-grid.

  Highest occupied state (VBM) at     -7.80452813 eV (relative to internal zero)
  | Occupation number:      1.75633731
  | K-point:      16 at    0.250000    0.250000    0.750000 (in units of recip. lattice)

  Lowest unoccupied state (CBM) at    -7.78876601 eV (relative to internal zero)
  | Occupation number:      0.28768193
  | K-point:      31 at    0.500000    0.500000    0.750000 (in units of recip. lattice)

  ESTIMATED overall HOMO-LUMO gap:      0.01576213 eV between HOMO at k-point 16 and LUMO at k-point 31
  | This appears to be an indirect band gap.
  | Smallest direct gap :      0.59092910 eV for k_point 18 at    0.250000    0.500000    0.500000 (in units of recip. lattice)
  However, this system has fractional occupation numbers. Since we use a finite k-point grid,
  this material is metallic within the approximate finite broadening function (occupation_type)
  applied to determine the occupation numbers.

  Checking to see if s.c.f. parameters should be adjusted.
  Adjusted the Pulay mixing parameter (charge_mix_param) for an expected low-gap system. New value:   0.020000 .
  Adjusted the occupation broadening width for an expected low-gap system. New value:      0.05000000 eV.

  Total energy components:
  | Sum of eigenvalues            :       -1195.63430344 Ha      -32534.86475227 eV
  | XC energy correction          :        -118.98457710 Ha       -3237.73507690 eV
  | XC potential correction       :         153.88052198 Ha        4187.30205055 eV
  | Free-atom electrostatic energy:        -850.80121301 Ha      -23151.47894030 eV
  | Hartree energy correction     :          -1.53543930 Ha         -41.78142906 eV
  | Entropy correction            :          -0.00008020 Ha          -0.00218224 eV
  | ---------------------------
  | Total energy                  :       -2013.07501086 Ha      -54778.55814798 eV
  | Total energy, T -> 0          :       -2013.07509106 Ha      -54778.56033022 eV  <-- do not rely on this value for anything but (periodic) metals
  | Electronic free energy        :       -2013.07517126 Ha      -54778.56251247 eV

  Derived energy quantities:
  | Kinetic energy                :        2030.98707524 Ha       55265.97021891 eV
  | Electrostatic energy          :       -3925.07750901 Ha     -106806.79328999 eV
  | Energy correction for multipole
  | error in Hartree potential    :           0.00671735 Ha           0.18278852 eV
  | Sum of eigenvalues per atom                           :       -5422.47745871 eV
  | Total energy (T->0) per atom                          :       -9129.76005504 eV  <-- do not rely on this value for anything but (periodic) metals
  | Electronic free energy per atom                       :       -9129.76041874 eV
  Evaluating new KS density using the density matrix
  Evaluating density matrix
  Time summed over all CPUs for getting density from density matrix: real work        5.204 s, elapsed        5.503 s
  Integration grid: deviation in total charge (<rho> - N_e) =  -9.947598E-14

  Self-consistency convergence accuracy:
  | Change of charge density      :  0.6494E+00
  | Change of unmixed KS density  :  0.1861E+00
  | Change of sum of eigenvalues  :  0.3245E+02 eV
  | Change of total energy        :  0.4359E+01 eV


------------------------------------------------------------
  End self-consistency iteration #     2       :  max(cpu_time)    wall_clock(cpu1)
  | Time for this iteration                     :        0.388 s           0.387 s
  | Charge density update                       :        0.233 s           0.233 s
  | Density mixing                              :        0.000 s           0.000 s
  | Hartree multipole update                    :        0.001 s           0.001 s
  | Hartree multipole summation                 :        0.027 s           0.027 s
  | Integration                                 :        0.115 s           0.115 s
  | Solution of K.-S. eqns.                     :        0.011 s           0.011 s
  | Total energy evaluation                     :        0.000 s           0.000 s

  Partial memory accounting:
  | Current value for overall tracked memory usage:
  |   Minimum:        6.219 MB (on task  0)
  |   Maximum:        6.377 MB (on task  2)
  |   Average:        6.297 MB
  | Peak value for overall tracked memory usage:
  |   Minimum:       15.145 MB (on task  6 after allocating gradient_basis_wave)
  |   Maximum:       17.203 MB (on task 16 after allocating gradient_basis_wave)
  |   Average:       16.281 MB
  | Largest tracked array allocation so far:
  |   Minimum:        4.689 MB (hamiltonian_shell on task  6)
  |   Maximum:        6.207 MB (hamiltonian_shell on task 16)
  |   Average:        5.512 MB
  Note:  These values currently only include a subset of arrays which are explicitly tracked.
  The "true" memory usage will be greater.
------------------------------------------------------------

------------------------------------------------------------
          Begin self-consistency iteration #    3

  Date     :  20240710, Time     :  231901.829
------------------------------------------------------------
  Pulay mixing of updated and previous charge densities.
  Available memory per node after mixing [GB]:   1044.55
  Renormalizing the density to the exact electron count on the 3D integration grid.
  | Formal number of electrons (from input files) :      76.0000000000
  | Integrated number of electrons on 3D grid     :      76.0000000000
  | Charge integration error                      :       0.0000000000
  | Normalization factor for density and gradient :       1.0000000000

  Evaluating partitioned Hartree potential by multipole expansion.
  | Original multipole sum: apparent total charge =   0.771754E-13
  | Sum of charges compensated after spline to logarithmic grids =   0.643861E-06
  | Analytical far-field extrapolation by fixed multipoles:
  | Hartree multipole sum: apparent total charge =   0.765359E-13
  Summing up the Hartree potential.
  Time summed over all CPUs for potential: real work        0.024 s, elapsed        0.025 s
  | RMS charge density error from multipole expansion :   0.576830E-02
  | Average real-space part of the electrostatic potential :      0.35460695 eV

  Integrating Hamiltonian matrix: batch-based integration.
  Time summed over all CPUs for integration: real work        2.544 s, elapsed        2.681 s

  Updating Kohn-Sham eigenvalues and eigenvectors using ELSI and the (modified) LAPACK eigensolver.
  Starting LAPACK eigensolver
  Finished Cholesky decomposition
  | Time :     0.000 s
  Finished transformation to standard eigenproblem
  | Time :     0.001 s
  Finished solving standard eigenproblem
  | Time :     0.002 s
  Finished back-transformation of eigenvectors
  | Time :     0.000 s

  Obtaining occupation numbers and electronic chemical potential using ELSI.
  | Note that, for insulating systems, the printed 'chemical potential' value is not uniquely defined.
  | It can be anywhere in the energy gap, as long as it correctly separates occupied and unoccupied states.
  | In systems with a gap, the physically relevant chemical potential is the VBM or HOMO.

  | Chemical potential (Fermi level):    -7.54155688 eV
  What follows are estimated values for band gap, HOMO, LUMO, etc.
  | They are estimated on a discrete k-point grid and not necessarily exact.
  | For converged numbers, create a DOS and/or band structure plot on a denser k-grid.

  Highest occupied state (VBM) at     -7.56461805 eV (relative to internal zero)
  | Occupation number:      1.48577194
  | K-point:      16 at    0.250000    0.250000    0.750000 (in units of recip. lattice)

  Lowest unoccupied state (CBM) at    -7.48300978 eV (relative to internal zero)
  | Occupation number:      0.09772952
  | K-point:      31 at    0.500000    0.500000    0.750000 (in units of recip. lattice)

  ESTIMATED overall HOMO-LUMO gap:      0.08160827 eV between HOMO at k-point 16 and LUMO at k-point 31
  | This appears to be an indirect band gap.
  | Smallest direct gap :      0.08474614 eV for k_point 31 at    0.500000    0.500000    0.750000 (in units of recip. lattice)
  However, this system has fractional occupation numbers. Since we use a finite k-point grid,
  this material is metallic within the approximate finite broadening function (occupation_type)
  applied to determine the occupation numbers.

  Total energy components:
  | Sum of eigenvalues            :       -1195.66445892 Ha      -32535.68532463 eV
  | XC energy correction          :        -118.97563478 Ha       -3237.49174424 eV
  | XC potential correction       :         153.86899775 Ha        4186.98846031 eV
  | Free-atom electrostatic energy:        -850.80121301 Ha      -23151.47894030 eV
  | Hartree energy correction     :          -1.49830837 Ha         -40.77104511 eV
  | Entropy correction            :          -0.00006413 Ha          -0.00174514 eV
  | ---------------------------
  | Total energy                  :       -2013.07061734 Ha      -54778.43859396 eV
  | Total energy, T -> 0          :       -2013.07068147 Ha      -54778.44033910 eV  <-- do not rely on this value for anything but (periodic) metals
  | Electronic free energy        :       -2013.07074560 Ha      -54778.44208423 eV

  Derived energy quantities:
  | Kinetic energy                :        2030.91416095 Ha       55263.98612021 eV
  | Electrostatic energy          :       -3925.00914351 Ha     -106804.93296993 eV
  | Energy correction for multipole
  | error in Hartree potential    :           0.00697651 Ha           0.18984049 eV
  | Sum of eigenvalues per atom                           :       -5422.61422077 eV
  | Total energy (T->0) per atom                          :       -9129.74005652 eV  <-- do not rely on this value for anything but (periodic) metals
  | Electronic free energy per atom                       :       -9129.74034737 eV
  Evaluating new KS density using the density matrix
  Evaluating density matrix
  Time summed over all CPUs for getting density from density matrix: real work        5.207 s, elapsed        5.527 s
[...]
  +-------------------------------------------------------------------+

 * Warning: Stress tensor is anisotropic. Be aware that pressure is an isotropic quantity.


  Self-consistency convergence accuracy:
  | Change of charge density      :  0.3247E-07
  | Change of unmixed KS density  :  0.5802E-07
  | Change of sum of eigenvalues  :  0.2262E-05 eV
  | Change of total energy        : -0.1250E-08 eV
  | Change of forces              :  0.7770E-05 eV/A

  Writing Kohn-Sham eigenvalues.
  K-point:       1 at    0.000000    0.000000    0.000000 (in units of recip. lattice)

  State    Occupation    Eigenvalue [Ha]    Eigenvalue [eV]
      1       2.00000        -180.091397        -4900.53626
      2       2.00000        -180.091365        -4900.53538
      3       2.00000         -19.884895         -541.09553
      4       2.00000         -19.884866         -541.09475
      5       2.00000         -18.868789         -513.44588
      6       2.00000         -18.868789         -513.44588
      7       2.00000         -18.868776         -513.44552
      8       2.00000         -18.868776         -513.44551
      9       2.00000         -16.472403         -448.23690
     10       2.00000         -16.472374         -448.23610
     11       2.00000         -16.472257         -448.23291
     12       2.00000         -16.472236         -448.23235
     13       2.00000         -16.472228         -448.23212
     14       2.00000         -16.472206         -448.23154
     15       2.00000          -2.415397          -65.72630
     16       2.00000          -2.414858          -65.71163
     17       2.00000          -1.544209          -42.02007
     18       2.00000          -1.544194          -42.01966
     19       2.00000          -1.538482          -41.86422
     20       2.00000          -1.538475          -41.86405
     21       2.00000          -1.537663          -41.84193
     22       2.00000          -1.536585          -41.81261
     23       2.00000          -0.986083          -26.83267
     24       2.00000          -0.944896          -25.71192
     25       2.00000          -0.919244          -25.01390
     26       2.00000          -0.919224          -25.01336
     27       2.00000          -0.529950          -14.42068
     28       2.00000          -0.514037          -13.98765
     29       2.00000          -0.492914          -13.41287
     30       2.00000          -0.459058          -12.49160
     31       2.00000          -0.459031          -12.49087
     32       2.00000          -0.412971          -11.23752
     33       2.00000          -0.412962          -11.23726
     34       2.00000          -0.392220          -10.67285
     35       2.00000          -0.346928           -9.44038
     36       2.00000          -0.337027           -9.17097
     37       2.00000          -0.337021           -9.17080
     38       2.00000          -0.319500           -8.69403
     39       0.00000          -0.255011           -6.93920
     40       0.00000          -0.243932           -6.63773
     41       0.00000          -0.234573           -6.38307
     42       0.00000          -0.232616           -6.32981
     43       0.00000          -0.232602           -6.32943
     44       0.00000          -0.167875           -4.56811
     45       0.00000          -0.158853           -4.32262
     46       0.00000          -0.084839           -2.30859
     47       0.00000          -0.084827           -2.30827
     48       0.00000          -0.052941           -1.44060
     49       0.00000          -0.034985           -0.95198
     50       0.00000           0.123301            3.35518
     51       0.00000           0.123306            3.35533
     52       0.00000           0.227496            6.19048
     53       0.00000           0.267840            7.28830
     54       0.00000           0.324174            8.82123
     55       0.00000           0.344533            9.37523
     56       0.00000           0.397645           10.82047
     57       0.00000           0.397716           10.82241
     58       0.00000           0.468883           12.75895
     59       0.00000           0.601993           16.38107
     60       0.00000           0.643698           17.51590
     61       0.00000           0.716265           19.49056

  What follows are estimated values for band gap, HOMO, LUMO, etc.
  | They are estimated on a discrete k-point grid and not necessarily exact.
  | For converged numbers, create a DOS and/or band structure plot on a denser k-grid.

  Highest occupied state (VBM) at     -8.69403208 eV (relative to internal zero)
  | Occupation number:      2.00000000
  | K-point:       1 at    0.000000    0.000000    0.000000 (in units of recip. lattice)

  Lowest unoccupied state (CBM) at    -6.93920085 eV (relative to internal zero)
  | Occupation number:      0.00000000
  | K-point:       1 at    0.000000    0.000000    0.000000 (in units of recip. lattice)

  ESTIMATED overall HOMO-LUMO gap:      1.75483124 eV between HOMO at k-point 1 and LUMO at k-point 1
  | This appears to be a direct band gap.
  The gap value is above 0.2 eV. Unless you are using a very sparse k-point grid,
  this system is most likely an insulator or a semiconductor.

  | Chemical Potential                          :    -8.13654432 eV
  | Note that, for insulating systems, the printed 'chemical potential' value is not uniquely defined.
  | It can be anywhere in the energy gap, as long as it correctly separates occupied and unoccupied states.
  | In systems with a gap, the physically relevant chemical potential is the VBM or HOMO.

  Self-consistency cycle converged.


------------------------------------------------------------
  End self-consistency iteration #     9       :  max(cpu_time)    wall_clock(cpu1)
  | Time for this iteration                     :        4.324 s           4.324 s
  | Charge density & force component update     :        3.883 s           3.884 s
  | Density mixing                              :        0.000 s           0.000 s
  | Hartree multipole update                    :        0.001 s           0.001 s
  | Hartree multipole summation                 :        0.168 s           0.169 s
  | Hartree pot. SCF incomplete forces          :        0.146 s           0.145 s
  | Integration                                 :        0.114 s           0.114 s
  | Solution of K.-S. eqns.                     :        0.010 s           0.010 s
  | Total energy evaluation                     :        0.000 s           0.000 s

  Partial memory accounting:
  | Current value for overall tracked memory usage:
  |   Minimum:        6.242 MB (on task 19)
  |   Maximum:        6.510 MB (on task  2)
  |   Average:        6.366 MB
  | Peak value for overall tracked memory usage:
  |   Minimum:       26.731 MB (on task  7 after allocating d_wave)
  |   Maximum:       28.283 MB (on task 16 after allocating d_wave)
  |   Average:       27.605 MB
  | Largest tracked array allocation so far:
  |   Minimum:        5.231 MB (density_matrix_con on task  6)
  |   Maximum:        6.207 MB (hamiltonian_shell on task 16)
  |   Average:        5.737 MB
  Note:  These values currently only include a subset of arrays which are explicitly tracked.
  The "true" memory usage will be greater.
------------------------------------------------------------
  Removing unitary transformations (pure translations, rotations) from forces on atoms.
  Atomic forces before filtering:
  | Net force on center of mass :   0.210595E-07 -0.406909E-07 -0.265036E-07 eV/A
  Atomic forces after filtering:
  | Net force on center of mass :   0.000000E+00  0.174225E-18  0.000000E+00 eV/A

  Energy and forces in a compact form:
  | Total energy uncorrected      :         -0.548009194229443E+05 eV
  | Total energy corrected        :         -0.548009194229443E+05 eV  <-- do not rely on this value for anything but (periodic) metals
  | Electronic free energy        :         -0.548009194229443E+05 eV
  Total atomic forces (unitary forces cleaned) [eV/Ang]:
  |    1         -0.376407338860868E-06          0.348284614316823E-06         -0.683946074342618E-07
  |    2          0.306581650032325E-06         -0.280919586863224E-06         -0.121850193359508E-07
  |    3         -0.655371945206224E-03         -0.653152464557606E-03          0.494427319217090E-08
  |    4          0.655323679062201E-03          0.653184706393216E-03          0.582407866800017E-08
  |    5         -0.112311468594568E-02          0.112377058687394E-02          0.355876598245252E-07
  |    6          0.112323277777853E-02         -0.112387019373701E-02          0.342236150855163E-07

  ------------------------------------ 
  Start decomposition of the XC Energy 
  ------------------------------------ 
  X and C from original XC functional choice 
  Hartree-Fock Energy :          0.000000000 Ha              0.000000000 eV
  X Energy            :       -115.609427249 Ha          -3145.892576693 eV
  C Energy            :         -3.010225119 Ha            -81.912393142 eV
  XC Energy w/o HF    :       -118.619652368 Ha          -3227.804969835 eV
  Total XC Energy     :       -118.619652368 Ha          -3227.804969835 eV
  ------------------------------------ 
  LDA X and C from self-consistent density 
  X Energy LDA        :       -107.322073667 Ha          -2920.382211881 eV
  C Energy LDA        :         -5.870998028 Ha           -159.757984735 eV
  ------------------------------------ 
  End decomposition of the XC Energy 
  ------------------------------------ 

------------------------------------------------------------
  Relaxation / MD: End force evaluation.       :  max(cpu_time)    wall_clock(cpu1)
  | Time for this force evaluation              :        8.191 s           8.192 s

------------------------------------------------------------
  Geometry optimization: Attempting to predict improved coordinates.

  +-------------------------------------------------------------------+
  | Generalized derivatives on lattice vectors [eV/A]                 |
  +-------------------------------------------------------------------+
  |lattice_vector       0.00045965       0.00111532      -0.00000000  |
  |lattice_vector       0.00111532       0.00043143      -0.00000000  |
  |lattice_vector      -0.00000000      -0.00000000      -0.00341670  |
  +-------------------------------------------------------------------+
  | Forces on lattice vectors cleaned from atomic contributions [eV/A]|
  +-------------------------------------------------------------------+
  |lattice_vector      -0.00045965      -0.00111532       0.00000000  |
  |lattice_vector      -0.00111532      -0.00043143       0.00000000  |
  |lattice_vector       0.00000000       0.00000000       0.00341670  |
  +-------------------------------------------------------------------+
  Removing unitary transformations (pure translations, rotations) from forces on atoms.
  Atomic forces before filtering:
  | Net force on center of mass :   0.000000E+00  0.174225E-18  0.000000E+00 eV/A
  Atomic forces after filtering:
  | Net force on center of mass :   0.000000E+00  0.174225E-18  0.000000E+00 eV/A
  Net remaining forces (excluding translations, rotations) in present geometry:
  || Forces on atoms   || =   0.112387E-02 eV/A.
  || Forces on lattice || =   0.341670E-02 eV/A^3.
  Maximum force component is  0.341670E-02 eV/A.
  Present geometry is converged.

------------------------------------------------------------
  Final atomic structure:
                         x [A]             y [A]             z [A]
  lattice_vector         4.64056480        0.00013643        0.00000000
  lattice_vector         0.00013663        4.64058829       -0.00000000
  lattice_vector         0.00000000       -0.00000000        2.97572683

            atom         0.00000001       -0.00000001       -0.00000006  Ti
            atom         2.32035071        2.32036237        1.48786342  Ti
            atom         1.41793965        1.41798816        0.00000001  O
            atom         3.22276178        3.22273657        0.00000001  O
            atom         0.90254385        3.73821802        1.48786342  O
            atom         3.73815758        0.90250671        1.48786342  O

  Fractional coordinates:
                         L1                L2                L3
       atom_frac         0.00000000       -0.00000000       -0.00000002  Ti
       atom_frac         0.50000000        0.50000000        0.50000000  Ti
       atom_frac         0.30554425        0.30555317        0.00000000  O
       atom_frac         0.69445575        0.69444683        0.00000000  O
       atom_frac         0.19446637        0.80554258        0.50000000  O
       atom_frac         0.80553363        0.19445742        0.50000000  O
------------------------------------------------------------

------------------------------------------------------------------------------
  Final output of selected total energy values:

  The following output summarizes some interesting total energy values
  at the end of a run (AFTER all relaxation, molecular dynamics, etc.).

  | Total energy of the DFT / Hartree-Fock s.c.f. calculation      :         -54800.919422944 eV
  | Final zero-broadening corrected energy (caution - metals only) :         -54800.919422944 eV
  | For reference only, the value of 1 Hartree used in FHI-aims is :             27.211384500 eV
  | For reference only, the overall average (free atom contribution
  | + realspace contribution) of the electrostatic potential after
  | s.c.f. convergence is                                          :            -17.022129066 eV

  Before relying on these values, please be sure to understand exactly which
  total energy value is referred to by a given number. Different objects may
  all carry the same name 'total energy'. Definitions:

  Total energy of the DFT / Hartree-Fock s.c.f. calculation:
  | Note that this energy does not include ANY quantities calculated after the
  | s.c.f. cycle, in particular not ANY RPA, MP2, etc. many-body perturbation terms.

  Final zero-broadening corrected energy:
  | For metallic systems only, a broadening of the occupation numbers at the Fermi
  | level can be extrapolated back to zero broadening by an electron-gas inspired
  | formula. For all systems that are not real metals, this value can be
  | meaningless and should be avoided.

------------------------------------------------------------------------------
  Methods described in the following list of references were used in this FHI-aims run.
  If you publish the results, please make sure to cite these reference if they apply.
  FHI-aims is an academic code, and for our developers (often, Ph.D. students
  and postdocs), scientific credit in the community is essential.
  Thank you for helping us!

  For any use of FHI-aims, please cite:

    Volker Blum, Ralf Gehrke, Felix Hanke, Paula Havu, Ville Havu,
    Xinguo Ren, Karsten Reuter, and Matthias Scheffler
    'Ab initio molecular simulations with numeric atom-centered orbitals'
    Computer Physics Communications 180, 2175-2196 (2009)
    http://doi.org/10.1016/j.cpc.2009.06.022


  For the analytical stress tensor used in your run, please cite:

    Franz Knuth, Christian Carbogno, Viktor Atalla, Volker Blum, Matthias Scheffler
    'All-electron formalism for total energy strain derivatives and
    stress tensor components for numeric atom-centered orbitals'
    Computer Physics Communications 190, 33-50 (2015).
    http://doi.org/10.1016/j.cpc.2015.01.003


  The provided symmetry information was generated with SPGlib:

    Atsushi Togo, Yusuke Seto, Dimitar Pashov
    SPGlib 1.7.3 obtained from http://spglib.sourceforge.net
    Licence: New BSD license
    Copyright (C) 2008 Atsushi Togo


  The ELSI infrastructure was used in your run to solve the Kohn-Sham electronic structure.
  Please check out https://wordpress.elsi-interchange.org to learn more.
  If scalability is important for your project, please acknowledge ELSI by citing:

    V. W-z. Yu, F. Corsetti, A. Garcia, W. P. Huhn, M. Jacquelin, W. Jia,
    B. Lange, L. Lin, J. Lu, W. Mi, A. Seifitokaldani, A. Vazquez-Mayagoitia,
    C. Yang, H. Yang, and V. Blum
    'ELSI: A unified software interface for Kohn-Sham electronic structure solvers'
    Computer Physics Communications 222, 267-285 (2018).
    http://doi.org/10.1016/j.cpc.2017.09.007


  For the real-space grid partitioning and parallelization used in this calculation, please cite:

    Ville Havu, Volker Blum, Paula Havu, and Matthias Scheffler,
    'Efficient O(N) integration for all-electron electronic structure calculation'
    'using numerically tabulated basis functions'
    Journal of Computational Physics 228, 8367-8379 (2009).
    http://doi.org/10.1016/j.jcp.2009.08.008

  Of course, there are many other important community references, e.g., those cited in the
  above references. Our list is limited to references that describe implementations in the
  FHI-aims code. The reason is purely practical (length of this list) - please credit others as well.

------------------------------------------------------------
          Leaving FHI-aims.
          Date     :  20240710, Time     :  232107.882

          Computational steps:
          | Number of self-consistency cycles          :          191
          | Number of SCF (re)initializations          :           12
          | Number of relaxation steps                 :           11

          Detailed time accounting                     :  max(cpu_time)    wall_clock(cpu1)
          | Total time                                  :      127.675 s         127.681 s
          | Preparation time                            :        0.207 s           0.206 s
          | Boundary condition initalization            :        0.296 s           0.284 s
          | Grid partitioning                           :        0.177 s           0.176 s
          | Preloading free-atom quantities on grid     :        0.989 s           0.991 s
          | Free-atom superposition energy              :        0.103 s           0.103 s
          | Total time for integrations                 :       22.253 s          22.259 s
          | Total time for solution of K.-S. equations  :        2.039 s           2.034 s
          | Total time for EV reorthonormalization      :        0.020 s           0.011 s
          | Total time for density & force components   :       88.807 s          88.813 s
          | Total time for mixing                       :        0.052 s           0.051 s
          | Total time for Hartree multipole update     :        0.158 s           0.151 s
          | Total time for Hartree multipole sum        :        8.828 s           8.836 s
          | Total time for total energy evaluation      :        0.021 s           0.019 s
          | Total time NSC force correction             :        3.492 s           3.492 s
          | Total time for scaled ZORA corrections      :        0.000 s           0.000 s

          Partial memory accounting:
          | Residual value for overall tracked memory usage across tasks:     0.000000 MB (should be 0.000000 MB)
          | Peak values for overall tracked memory usage:
          |   Minimum:       26.731 MB (on task  7 after allocating d_wave)
          |   Maximum:       28.283 MB (on task 16 after allocating d_wave)
          |   Average:       27.605 MB
          | Largest tracked array allocation:
          |   Minimum:        5.231 MB (density_matrix_con on task  6)
          |   Maximum:        6.207 MB (hamiltonian_shell on task 16)
          |   Average:        5.737 MB
          Note:  These values currently only include a subset of arrays which are explicitly tracked.
          The "true" memory usage will be greater.

          Have a nice day.
------------------------------------------------------------
