------------------------------------------------------------
          Invoking FHI-aims ...

          When using FHI-aims, please cite the following reference:

            Volker Blum, Ralf Gehrke, Felix Hanke, Paula Havu,
            Ville Havu, Xinguo Ren, Karsten Reuter, and Matthias Scheffler,
            'Ab Initio Molecular Simulations with Numeric Atom-Centered Orbitals',
            Computer Physics Communications 180, 2175-2196 (2009)

          In addition, many other developments in FHI-aims are likely important for
          your particular application. If so, please cite them. A partial list of references
          is written at the end of this file. Thank you for giving credit to the authors
          of these developments.

          For general information about FHI-aims please find us at

            https://fhi-aims.org

          Online tutorials can be found at

            https://fhi-aims-club.gitlab.io/tutorials/tutorials-overview/

          For any questions about FHI-aims, please visit our slack channel at

            https://fhi-aims.slack.com

          and our main development and support site at

            https://aims-git.rz-berlin.mpg.de .

          The latter site, in particular, has a wiki to collect information, as well
          as an issue tracker to log discussions, suggest improvements, and report issues
          or bugs. https://aims-git.rz-berlin.mpg.de is also the main development site
          of the project and all new and updated code versions can be obtained there.
          Please send an email to aims-coordinators@fhi-berlin.mpg.de and we will add
          you to these sites. They are for you and everyone is welcome there.

------------------------------------------------------------



  Date     :  20250311, Time     :  192636.950
  Time zero on CPU 1             :   0.326272000000000E+00  s.
  Internal wall clock time zero  :           510953196.950  s.

  FHI-aims created a unique identifier for this run for later identification
  aims_uuid : 9CA29016-4E4E-4736-A8DC-81398DABD866

  Build configuration of the current instance of FHI-aims
  -------------------------------------------------------
  FHI-aims version      : 240605
  Commit number         : b001b2e18
  CMake host system     : Linux-6.5.0-41-generic
  CMake version         : 3.22.1
  Fortran compiler      : /opt/intel/oneapi/mpi/2021.12/bin/mpiifort (IntelLLVM) version 2024.1.0
  Fortran compiler flags: -fc=ifx -O3 -ip -fp-model precise
  C compiler            : /opt/intel/oneapi/mpi/2021.12/bin/mpiicc (IntelLLVM) version 2024.1.0
  C compiler flags      : -cc=icx -O3 -ip -fp-model precise -std=gnu99
  C++ compiler          : /opt/intel/oneapi/mpi/2021.12/bin/mpiicpc (IntelLLVM) version 2024.1.0
  C++ compiler flags    : -cxx=icpx -O3 -ip -fp-model precise -std=c++11
  HIP compiler          :
  HIP compiler flags    :
  HIP GPU arch          :
  Using MPI
  Using ScaLAPACK
  Using LibXC
  Using i-PI
  Using RLSY
  Linking against: /opt/intel/oneapi/mkl/2024.1/lib/intel64/libmkl_intel_lp64.so
                   /opt/intel/oneapi/mkl/2024.1/lib/intel64/libmkl_sequential.so
                   /opt/intel/oneapi/mkl/2024.1/lib/intel64/libmkl_core.so
                   /opt/intel/oneapi/mkl/2024.1/lib/intel64/libmkl_blacs_intelmpi_lp64.so
                   /opt/intel/oneapi/mkl/2024.1/lib/intel64/libmkl_scalapack_lp64.so
                   /opt/intel/oneapi/mkl/2024.1/lib/intel64/libmkl_core.so

  Using       20 parallel tasks.
  Task        0 on host RSL-arvutus reporting.
  Task        1 on host RSL-arvutus reporting.
  Task        2 on host RSL-arvutus reporting.
  Task        3 on host RSL-arvutus reporting.
  Task        4 on host RSL-arvutus reporting.
  Task        5 on host RSL-arvutus reporting.
  Task        6 on host RSL-arvutus reporting.
  Task        7 on host RSL-arvutus reporting.
  Task        8 on host RSL-arvutus reporting.
  Task        9 on host RSL-arvutus reporting.
  Task       10 on host RSL-arvutus reporting.
  Task       11 on host RSL-arvutus reporting.
  Task       12 on host RSL-arvutus reporting.
  Task       13 on host RSL-arvutus reporting.
  Task       14 on host RSL-arvutus reporting.
  Task       15 on host RSL-arvutus reporting.
  Task       16 on host RSL-arvutus reporting.
  Task       17 on host RSL-arvutus reporting.
  Task       18 on host RSL-arvutus reporting.
  Task       19 on host RSL-arvutus reporting.

  Memory overcommitment is allowed on your operating system.

  Obtaining array dimensions for all initial allocations:
  
  -----------------------------------------------------------------------
  Parsing control.in (first pass over file, find array dimensions only).
  The contents of control.in will be repeated verbatim below
  unless switched off by setting 'verbatim_writeout .false.' .
  in the first line of control.in .
  -----------------------------------------------------------------------
  
    xc               pbe
    relativistic     zora scalar 1.0e-12
    spin             collinear
  
    default_initial_moment 1.0
    charge           1.0
    force_occupation_basis 1 1 atomic 1 0 0 0.0 5
  ################################################################################
  #
  #  FHI-aims code project
  #  Volker Blum, Fritz Haber Institute Berlin, 2009
  #
  #  Suggested "tight" defaults for H atom (to be pasted into control.in file)
  #
  ################################################################################
    species        H
  #     global species definitions
      nucleus             1
      mass                1.00794
  #
      l_hartree           6
  #
      cut_pot             4.0  2.0  1.0
      basis_dep_cutoff    1e-4
  #
      radial_base         24 7.0
      radial_multiplier   2
      angular_grids       specified
        division   0.1930   50
        division   0.3175  110
        division   0.4293  194
        division   0.5066  302
        division   0.5626  434
  #      division   0.5922  590
  #      division   0.6227  974
  #      division   0.6868 1202
  #      outer_grid  770
        outer_grid  434
  ################################################################################
  #
  #  Definition of "minimal" basis
  #
  ################################################################################
  #     valence basis states
      valence      1  s   1.
  #     ion occupancy
      ion_occ      1  s   0.5
  ################################################################################
  #
  #  Suggested additional basis functions. For production calculations,
  #  uncomment them one after another (the most important basis functions are
  #  listed first).
  #
  #  Basis constructed for dimers: 0.5 A, 0.7 A, 1.0 A, 1.5 A, 2.5 A
  #
  ################################################################################
  #  "First tier" - improvements: -1014.90 meV to -62.69 meV
       hydro 2 s 2.1
       hydro 2 p 3.5
  #  "Second tier" - improvements: -12.89 meV to -1.83 meV
       hydro 1 s 0.85
       hydro 2 p 3.7
       hydro 2 s 1.2
       hydro 3 d 7
  #  "Third tier" - improvements: -0.25 meV to -0.12 meV
  #     hydro 4 f 11.2
  #     hydro 3 p 4.8
  #     hydro 4 d 9
  #     hydro 3 s 3.2
  ################################################################################
  #
  # For methods that use the localized form of the "resolution of identity" for
  # the two-electron Coulomb operator (RI_method LVL), particularly Hartree-Fock and
  # hybrid density functional calculations, the highest accuracy can be obtained by
  # uncommenting the line beginning with "for_aux"  below, thus adding an extra g radial
  # function to the construction of the product basis set for the expansion.
  # See Ref. New J. Phys. 17, 093020 (2015) for more information, particularly Figs. 1 and 6.
  #
  ################################################################################
  #
  # for_aux hydro 5 g 6.0
  
  
  ################################################################################
  #
  #  FHI-aims code project
  #  Volker Blum, Fritz Haber Institute Berlin, 2009
  #
  #  Suggested "tight" defaults for C atom (to be pasted into control.in file)
  #
  ################################################################################
    species        C
  #     global species definitions
      nucleus             6
      mass                12.0107
  #
      l_hartree           6
  #
      cut_pot             4.0  2.0  1.0
      basis_dep_cutoff    1e-4
  #
      radial_base         34 7.0
      radial_multiplier   2
      angular_grids specified
        division   0.2187   50
        division   0.4416  110
        division   0.6335  194
        division   0.7727  302
        division   0.8772  434
  #      division   0.9334  590
  #      division   0.9924  770
  #      division   1.0230  974
  #      division   1.5020 1202
  #     outer_grid  974
        outer_grid  434
  ################################################################################
  #
  #  Definition of "minimal" basis
  #
  ################################################################################
  #     valence basis states
      valence      2  s   2.
      valence      2  p   2.
  #     ion occupancy
      ion_occ      2  s   1.
      ion_occ      2  p   1.
  ################################################################################
  #
  #  Suggested additional basis functions. For production calculations,
  #  uncomment them one after another (the most important basis functions are
  #  listed first).
  #
  #  Constructed for dimers: 1.0 A, 1.25 A, 1.5 A, 2.0 A, 3.0 A
  #
  ################################################################################
  #  "First tier" - improvements: -1214.57 meV to -155.61 meV
       hydro 2 p 1.7
       hydro 3 d 6
       hydro 2 s 4.9
  #  "Second tier" - improvements: -67.75 meV to -5.23 meV
       hydro 4 f 9.8
       hydro 3 p 5.2
       hydro 3 s 4.3
       hydro 5 g 14.4
       hydro 3 d 6.2
  #  "Third tier" - improvements: -2.43 meV to -0.60 meV
  #     hydro 2 p 5.6
  #     hydro 2 s 1.4
  #     hydro 3 d 4.9
  #     hydro 4 f 11.2
  #  "Fourth tier" - improvements: -0.39 meV to -0.18 meV
  #     hydro 2 p 2.1
  #     hydro 5 g 16.4
  #     hydro 4 d 13.2
  #     hydro 3 s 13.6
  #     hydro 4 f 17.6
  #  Further basis functions - improvements: -0.08 meV and below
  #     hydro 3 s 2
  #     hydro 3 p 6
  #     hydro 4 d 20
  ################################################################################
  #
  # For methods that use the localized form of the "resolution of identity" for
  # the two-electron Coulomb operator (RI_method LVL), particularly Hartree-Fock and
  # hybrid density functional calculations, the highest accuracy can be obtained by
  # uncommenting the line beginning with "for_aux"  below, thus adding an extra g radial
  # function to the construction of the product basis set for the expansion.
  # See Ref. New J. Phys. 17, 093020 (2015) for more information, particularly Figs. 1 and 6.
  #
  ################################################################################
  #
  # for_aux hydro 5 g 6.0
  
  
  ################################################################################
  #
  #  FHI-aims code project
  #  Volker Blum, Fritz Haber Institute Berlin, 2009
  #
  #  Suggested "tight" defaults for O atom (to be pasted into control.in file)
  #
  ################################################################################
    species        O
  #     global species definitions
      nucleus             8
      mass                15.9994
  #
      l_hartree           6
  #
      cut_pot             4.0  2.0  1.0
      basis_dep_cutoff    1e-4
  #
      radial_base         36 7.0
      radial_multiplier   2
       angular_grids specified
        division   0.1817   50
        division   0.3417  110
        division   0.4949  194
        division   0.6251  302
        division   0.8014  434
  #      division   0.8507  590
  #      division   0.8762  770
  #      division   0.9023  974
  #      division   1.2339 1202
  #      outer_grid 974
        outer_grid  434
  ################################################################################
  #
  #  Definition of "minimal" basis
  #
  ################################################################################
  #     valence basis states
      valence      2  s   2.
      valence      2  p   4.
  #     ion occupancy
      ion_occ      2  s   1.
      ion_occ      2  p   3.
  ################################################################################
  #
  #  Suggested additional basis functions. For production calculations,
  #  uncomment them one after another (the most important basis functions are
  #  listed first).
  #
  #  Constructed for dimers: 1.0 A, 1.208 A, 1.5 A, 2.0 A, 3.0 A
  #
  ################################################################################
  #  "First tier" - improvements: -699.05 meV to -159.38 meV
       hydro 2 p 1.8
       hydro 3 d 7.6
       hydro 3 s 6.4
  #  "Second tier" - improvements: -49.91 meV to -5.39 meV
       hydro 4 f 11.6
       hydro 3 p 6.2
       hydro 3 d 5.6
       hydro 5 g 17.6
       hydro 1 s 0.75
  #  "Third tier" - improvements: -2.83 meV to -0.50 meV
  #     ionic 2 p auto
  #     hydro 4 f 10.8
  #     hydro 4 d 4.7
  #     hydro 2 s 6.8
  #  "Fourth tier" - improvements: -0.40 meV to -0.12 meV
  #     hydro 3 p 5
  #     hydro 3 s 3.3
  #     hydro 5 g 15.6
  #     hydro 4 f 17.6
  #     hydro 4 d 14
  # Further basis functions - -0.08 meV and below
  #     hydro 3 s 2.1
  #     hydro 4 d 11.6
  #     hydro 3 p 16
  #     hydro 2 s 17.2
  ################################################################################
  #
  # For methods that use the localized form of the "resolution of identity" for
  # the two-electron Coulomb operator (RI_method LVL), particularly Hartree-Fock and
  # hybrid density functional calculations, the highest accuracy can be obtained by
  # uncommenting the line beginning with "for_aux"  below, thus adding an extra g radial
  # function to the construction of the product basis set for the expansion.
  # See Ref. New J. Phys. 17, 093020 (2015) for more information, particularly Figs. 1 and 6.
  #
  ################################################################################
  #
  # for_aux hydro 5 g 6.0
  
  
  ################################################################################
  #
  #  FHI-aims code project
  # Volker Blum, Fritz Haber Institute Berlin, 2009
  #
  #  Suggested "tight" defaults for O atom (to be pasted into control.in file)
  #
  ################################################################################
    species        O1
  #     global species definitions
      nucleus             8
      mass                15.9994
  #
      l_hartree           6
  #
      cut_pot             4.0  2.0  1.0
      basis_dep_cutoff    1e-4
  #
      radial_base         36 7.0
      radial_multiplier   2
       angular_grids specified
        division   0.1817   50
        division   0.3417  110
        division   0.4949  194
        division   0.6251  302
        division   0.8014  434
  #      division   0.8507  590
  #      division   0.8762  770
  #      division   0.9023  974
  #      division   1.2339 1202
  #      outer_grid 974
        outer_grid  434
  ################################################################################
  #
  #  Definition of "minimal" basis
  #
  ################################################################################
  #     valence basis states
      valence      2  s   2.
      valence      2  p   4.
  #     ion occupancy
      ion_occ      2  s   1.
      ion_occ      2  p   3.
  ################################################################################
  #
  #  Suggested additional basis functions. For production calculations,
  #  uncomment them one after another (the most important basis functions are
  #  listed first).
  #
  #  Constructed for dimers: 1.0 A, 1.208 A, 1.5 A, 2.0 A, 3.0 A
  #
  ################################################################################
  #  "First tier" - improvements: -699.05 meV to -159.38 meV
       hydro 2 p 1.8
       hydro 3 d 7.6
       hydro 3 s 6.4
  #  "Second tier" - improvements: -49.91 meV to -5.39 meV
       hydro 4 f 11.6
       hydro 3 p 6.2
       hydro 3 d 5.6
       hydro 5 g 17.6
       hydro 1 s 0.75
  #  "Third tier" - improvements: -2.83 meV to -0.50 meV
       ionic 2 p auto
       hydro 4 f 10.8
       hydro 4 d 4.7
       hydro 2 s 6.8
  #  "Fourth tier" - improvements: -0.40 meV to -0.12 meV
  #     hydro 3 p 5
  #     hydro 3 s 3.3
  #     hydro 5 g 15.6
  #     hydro 4 f 17.6
  #     hydro 4 d 14
  # Further basis functions - -0.08 meV and below
  #     hydro 3 s 2.1
  #     hydro 4 d 11.6
  #     hydro 3 p 16
  #     hydro 2 s 17.2
  ################################################################################
  #
  # For methods that use the localized form of the "resolution of identity" for
  # the two-electron Coulomb operator (RI_method LVL), particularly Hartree-Fock and
  # hybrid density functional calculations, the highest accuracy can be obtained by
  # uncommenting the line beginning with "for_aux"  below, thus adding an extra g radial
  # function to the construction of the product basis set for the expansion.
  # See Ref. New J. Phys. 17, 093020 (2015) for more information, particularly Figs. 1 and 6.
  #
  ################################################################################
  #
  # for_aux hydro 5 g 6.0
  
  # additional basis functions for atom with a core hole
       hydro 1 s 12.0
       hydro 1 s 10.0
       hydro 1 s 6.0
       hydro 2 s 10.0
       hydro 2 p 8.0
       hydro 2 p 6.0
       hydro 3 d 8.0
  
  -----------------------------------------------------------------------
  Completed first pass over input file control.in .
  -----------------------------------------------------------------------
  
  
  -----------------------------------------------------------------------
  Parsing geometry.in (first pass over file, find array dimensions only).
  The contents of geometry.in will be repeated verbatim below
  unless switched off by setting 'verbatim_writeout .false.' .
  in the first line of geometry.in .
  -----------------------------------------------------------------------
  
  atom       0.00024655     -1.33015607      0.00088397 O
  atom       0.00000700     -0.11148773      0.00047508 C
  atom       1.28839831      0.68795916     -0.00012122 C
  atom      -1.28869876      0.68745266     -0.00013344 C
  atom       1.33019345      1.34271519     -0.88308336 H
  atom       1.32878958      1.34691005      0.87974492 H
  atom       2.15095184      0.01483665      0.00201134 H
  atom      -2.15098727      0.01399071      0.00200846 H
  atom      -1.33075047      1.34217684     -0.88310708 H
  atom      -1.32935022      1.34640255      0.87972133 H
  
  -----------------------------------------------------------------------
  Completed first pass over input file geometry.in .
  -----------------------------------------------------------------------
  

  Basic array size parameters:
  | Number of species                 :        4
  | Number of atoms                   :       10
  | Max. basis fn. angular momentum   :        4
  | Max. atomic/ionic basis occupied n:        2
  | Max. number of basis fn. types    :        3
  | Max. radial fns per species/type  :       18
  | Max. logarithmic grid size        :     1301
  | Max. radial integration grid size :       73
  | Max. angular integration grid size:      434
  | Max. angular grid division number :        8
  | Radial grid for Hartree potential :     1301
  | Number of spin channels           :        2

------------------------------------------------------------
          Reading file control.in.
------------------------------------------------------------
  XC: Using PBE gradient-corrected functionals.
  Scalar relativistic treatment of kinetic energy: ZORA.
  Threshold value for ZORA:   0.100000E-11
  Spin treatment: Spin density functional theory - collinear spins.
  Initial spin moment per atom:   1.0000
  Charged system requested: Charge =   0.100000E+01.
  Occupation forced using basis function selection
    selected atom:     1
    selected spin channel:   1
    selected basis function - n l m:     1    0    0
    maximum number KS state for forcing occupation:        5
 
  Reading configuration options for species H                   .
  | Found nuclear charge :   1.0000
  | Found atomic mass :    1.00794000000000      amu
  | Found l_max for Hartree potential  :   6
  | Found cutoff potl. onset [A], width [A], scale factor :    4.00000    2.00000    1.00000
  | Threshold for basis-dependent cutoff potential is   0.100000E-03
  | Found data for basic radial integration grid :    24 points, outermost radius =    7.000 A
  | Found multiplier for basic radial grid :   2
  | Found angular grid specification: user-specified.
  | Specified grid contains     6 separate shells.
  | Check grid settings after all constraints further below.
  | Found free-atom valence shell :  1 s   1.000
  | Found free-ion valence shell :  1 s   0.500
  | Found hydrogenic basis function :  2 s   2.100
  | Found hydrogenic basis function :  2 p   3.500
  | Found hydrogenic basis function :  1 s   0.850
  | Found hydrogenic basis function :  2 p   3.700
  | Found hydrogenic basis function :  2 s   1.200
  | Found hydrogenic basis function :  3 d   7.000
 | Encountered keyword species, ending the description of species H                   .
  Species H                   : Missing cutoff potential type.
  Defaulting to exp(1/x)/(1-x)^2 type cutoff potential.
  Species H : No 'logarithmic' tag. Using default grid for free atom:
  | Default logarithmic grid data [bohr] : 0.1000E-03 0.1000E+03 0.1012E+01
  Species H : On-site basis accuracy parameter (for Gram-Schmidt orthonormalisation) not specified.
  Using default value basis_acc =  0.1000000E-03.
  Species H                   : Using default innermost maximum threshold i_radial=  2 for radial functions.
  Species H                   : Default cutoff onset for free atom density etc. : 0.40000000E+01 AA.
  Species H                   : Basic radial grid will be enhanced according to radial_multiplier =   2, to contain    49 grid points.
 
  Reading configuration options for species C                   .
  | Found nuclear charge :   6.0000
  | Found atomic mass :    12.0107000000000      amu
  | Found l_max for Hartree potential  :   6
  | Found cutoff potl. onset [A], width [A], scale factor :    4.00000    2.00000    1.00000
  | Threshold for basis-dependent cutoff potential is   0.100000E-03
  | Found data for basic radial integration grid :    34 points, outermost radius =    7.000 A
  | Found multiplier for basic radial grid :   2
  | Found angular grid specification: user-specified.
  | Specified grid contains     6 separate shells.
  | Check grid settings after all constraints further below.
  | Found free-atom valence shell :  2 s   2.000
  | Found free-atom valence shell :  2 p   2.000
  | Found free-ion valence shell :  2 s   1.000
  | Found free-ion valence shell :  2 p   1.000
  | Found hydrogenic basis function :  2 p   1.700
  | Found hydrogenic basis function :  3 d   6.000
  | Found hydrogenic basis function :  2 s   4.900
  | Found hydrogenic basis function :  4 f   9.800
  | Found hydrogenic basis function :  3 p   5.200
  | Found hydrogenic basis function :  3 s   4.300
  | Found hydrogenic basis function :  5 g  14.400
  | Found hydrogenic basis function :  3 d   6.200
 | Encountered keyword species, ending the description of species C                   .
  Species C                   : Missing cutoff potential type.
  Defaulting to exp(1/x)/(1-x)^2 type cutoff potential.
  Species C : No 'logarithmic' tag. Using default grid for free atom:
  | Default logarithmic grid data [bohr] : 0.1000E-03 0.1000E+03 0.1012E+01
  Species C : On-site basis accuracy parameter (for Gram-Schmidt orthonormalisation) not specified.
  Using default value basis_acc =  0.1000000E-03.
  Species C                   : Using default innermost maximum threshold i_radial=  2 for radial functions.
  Species C                   : Default cutoff onset for free atom density etc. : 0.40000000E+01 AA.
  Species C                   : Basic radial grid will be enhanced according to radial_multiplier =   2, to contain    69 grid points.
 
  Reading configuration options for species O                   .
  | Found nuclear charge :   8.0000
  | Found atomic mass :    15.9994000000000      amu
  | Found l_max for Hartree potential  :   6
  | Found cutoff potl. onset [A], width [A], scale factor :    4.00000    2.00000    1.00000
  | Threshold for basis-dependent cutoff potential is   0.100000E-03
  | Found data for basic radial integration grid :    36 points, outermost radius =    7.000 A
  | Found multiplier for basic radial grid :   2
  | Found angular grid specification: user-specified.
  | Specified grid contains     6 separate shells.
  | Check grid settings after all constraints further below.
  | Found free-atom valence shell :  2 s   2.000
  | Found free-atom valence shell :  2 p   4.000
  | Found free-ion valence shell :  2 s   1.000
  | Found free-ion valence shell :  2 p   3.000
  | Found hydrogenic basis function :  2 p   1.800
  | Found hydrogenic basis function :  3 d   7.600
  | Found hydrogenic basis function :  3 s   6.400
  | Found hydrogenic basis function :  4 f  11.600
  | Found hydrogenic basis function :  3 p   6.200
  | Found hydrogenic basis function :  3 d   5.600
  | Found hydrogenic basis function :  5 g  17.600
  | Found hydrogenic basis function :  1 s   0.750
 | Encountered keyword species, ending the description of species O                   .
  Species O                   : Missing cutoff potential type.
  Defaulting to exp(1/x)/(1-x)^2 type cutoff potential.
  Species O : No 'logarithmic' tag. Using default grid for free atom:
  | Default logarithmic grid data [bohr] : 0.1000E-03 0.1000E+03 0.1012E+01
  Species O : On-site basis accuracy parameter (for Gram-Schmidt orthonormalisation) not specified.
  Using default value basis_acc =  0.1000000E-03.
  Species O                   : Using default innermost maximum threshold i_radial=  2 for radial functions.
  Species O                   : Default cutoff onset for free atom density etc. : 0.40000000E+01 AA.
  Species O                   : Basic radial grid will be enhanced according to radial_multiplier =   2, to contain    73 grid points.
 
  Reading configuration options for species O1                  .
  | Found nuclear charge :   8.0000
  | Found atomic mass :    15.9994000000000      amu
  | Found l_max for Hartree potential  :   6
  | Found cutoff potl. onset [A], width [A], scale factor :    4.00000    2.00000    1.00000
  | Threshold for basis-dependent cutoff potential is   0.100000E-03
  | Found data for basic radial integration grid :    36 points, outermost radius =    7.000 A
  | Found multiplier for basic radial grid :   2
  | Found angular grid specification: user-specified.
  | Specified grid contains     6 separate shells.
  | Check grid settings after all constraints further below.
  | Found free-atom valence shell :  2 s   2.000
  | Found free-atom valence shell :  2 p   4.000
  | Found free-ion valence shell :  2 s   1.000
  | Found free-ion valence shell :  2 p   3.000
  | Found hydrogenic basis function :  2 p   1.800
  | Found hydrogenic basis function :  3 d   7.600
  | Found hydrogenic basis function :  3 s   6.400
  | Found hydrogenic basis function :  4 f  11.600
  | Found hydrogenic basis function :  3 p   6.200
  | Found hydrogenic basis function :  3 d   5.600
  | Found hydrogenic basis function :  5 g  17.600
  | Found hydrogenic basis function :  1 s   0.750
  | Found ionic basis function :  2 p , default cutoff radius.
  | Found hydrogenic basis function :  4 f  10.800
  | Found hydrogenic basis function :  4 d   4.700
  | Found hydrogenic basis function :  2 s   6.800
  | Found hydrogenic basis function :  1 s  12.000
  | Found hydrogenic basis function :  1 s  10.000
  | Found hydrogenic basis function :  1 s   6.000
  | Found hydrogenic basis function :  2 s  10.000
  | Found hydrogenic basis function :  2 p   8.000
  | Found hydrogenic basis function :  2 p   6.000
  | Found hydrogenic basis function :  3 d   8.000
  Species O1                  : Missing cutoff potential type.
  Defaulting to exp(1/x)/(1-x)^2 type cutoff potential.
  Species O1: No 'logarithmic' tag. Using default grid for free atom:
  | Default logarithmic grid data [bohr] : 0.1000E-03 0.1000E+03 0.1012E+01
  | Will include ionic basis functions of  2.0-fold positive O1                   ion.
  Species O1: On-site basis accuracy parameter (for Gram-Schmidt orthonormalisation) not specified.
  Using default value basis_acc =  0.1000000E-03.
  Species O1                  : Using default innermost maximum threshold i_radial=  2 for radial functions.
  Species O1                  : Default cutoff onset for free atom density etc. : 0.40000000E+01 AA.
  Species O1                  : Basic radial grid will be enhanced according to radial_multiplier =   2, to contain    73 grid points.
 
  Finished reading input file 'control.in'.
 
------------------------------------------------------------


------------------------------------------------------------
          Reading geometry description geometry.in.
------------------------------------------------------------
  | The smallest distance between any two atoms is         1.09411930 AA.
  | The first atom of this pair is atom number                      3 .
  | The second atom of this pair is atom number                     7 .
  Input structure read successfully.
  The structure contains       10 atoms,  and a total of         31.000 electrons.

  Input geometry:
  | No unit cell requested.
  | Atomic structure:
  |       Atom                x [A]            y [A]            z [A]
  |    1: Species O             0.00024655       -1.33015607        0.00088397
  |    2: Species C             0.00000700       -0.11148773        0.00047508
  |    3: Species C             1.28839831        0.68795916       -0.00012122
  |    4: Species C            -1.28869876        0.68745266       -0.00013344
  |    5: Species H             1.33019345        1.34271519       -0.88308336
  |    6: Species H             1.32878958        1.34691005        0.87974492
  |    7: Species H             2.15095184        0.01483665        0.00201134
  |    8: Species H            -2.15098727        0.01399071        0.00200846
  |    9: Species H            -1.33075047        1.34217684       -0.88310708
  |   10: Species H            -1.32935022        1.34640255        0.87972133

  Initial moments and charges:
  |  Atom   Moment         Charge        Species
  |     1   0.100000E+01   0.000000E+00   O
  |     2   0.100000E+01   0.000000E+00   C
  |     3   0.100000E+01   0.000000E+00   C
  |     4   0.100000E+01   0.000000E+00   C
  |     5   0.100000E+01   0.000000E+00   H
  |     6   0.100000E+01   0.000000E+00   H
  |     7   0.100000E+01   0.000000E+00   H
  |     8   0.100000E+01   0.000000E+00   H
  |     9   0.100000E+01   0.000000E+00   H
  |    10   0.100000E+01   0.000000E+00   H

  Slab Identifier: This is not a periodic structure.
 
  Finished reading input file 'geometry.in'.
 

 
  Consistency checks for stacksize environment parameter are next.
 
  | Maximum stacksize for task 0: unlimited
  | Maximum stacksize for task 1: unlimited
  | Maximum stacksize for task 2: unlimited
  | Maximum stacksize for task 3: unlimited
  | Maximum stacksize for task 4: unlimited
  | Maximum stacksize for task 5: unlimited
  | Maximum stacksize for task 6: unlimited
  | Maximum stacksize for task 7: unlimited
  | Maximum stacksize for task 8: unlimited
  | Maximum stacksize for task 9: unlimited
  | Maximum stacksize for task 10: unlimited
  | Maximum stacksize for task 11: unlimited
  | Maximum stacksize for task 12: unlimited
  | Maximum stacksize for task 13: unlimited
  | Maximum stacksize for task 14: unlimited
  | Maximum stacksize for task 15: unlimited
  | Maximum stacksize for task 16: unlimited
  | Maximum stacksize for task 17: unlimited
  | Maximum stacksize for task 18: unlimited
  | Maximum stacksize for task 19: unlimited
  | Current stacksize for task 0: unlimited
  | Current stacksize for task 1: unlimited
  | Current stacksize for task 2: unlimited
  | Current stacksize for task 3: unlimited
  | Current stacksize for task 4: unlimited
  | Current stacksize for task 5: unlimited
  | Current stacksize for task 6: unlimited
  | Current stacksize for task 7: unlimited
  | Current stacksize for task 8: unlimited
  | Current stacksize for task 9: unlimited
  | Current stacksize for task 10: unlimited
  | Current stacksize for task 11: unlimited
  | Current stacksize for task 12: unlimited
  | Current stacksize for task 13: unlimited
  | Current stacksize for task 14: unlimited
  | Current stacksize for task 15: unlimited
  | Current stacksize for task 16: unlimited
  | Current stacksize for task 17: unlimited
  | Current stacksize for task 18: unlimited
  | Current stacksize for task 19: unlimited
 
  Consistency checks for the contents of control.in are next.
 
  *** WARNING: The force_occupation functionality has been replaced with new deltascf_basis ***
  *** and deltascf_projector and will be removed in an upcoming release ***
  MPI_IN_PLACE appears to work with this MPI implementation.
  | Keeping use_mpi_in_place .true. (see manual).
  Target number of points in a grid batch is not set. Defaulting to  100
  Method for grid partitioning is not set. Defaulting to parallel hash+maxmin partitioning.
  Batch size limit is not set. Defaulting to    200
  By default, will store active basis functions for each batch.
  If in need of memory, prune_basis_once .false. can be used to disable this option.
  communication_type for Hartree potential was not specified.
  Defaulting to calc_hartree .
  Defaulting to Pulay charge density mixer.
  Pulay mixer: Number of relevant iterations not set.
  Defaulting to    8 iterations.
  Pulay mixer: Number of initial linear mixing iterations not set.
  Defaulting to    0 iterations.
  Work space size for distributed Hartree potential not set.
  Defaulting to   0.200000E+03 MB.
  Mixing parameter for charge density mixing has not been set.
  Using default: charge_mix_param =     0.0500.
  The mixing parameter will be adjusted in iteration number     2 of each s.c.f. cycle (i.e., each geometry step).
  Mixing parameter for spin density mixing has not been set.
  Using charge_mix_param as default:     0.0500.
  Algorithm-dependent basis array size parameters:
  | n_max_pulay                         :        8
  Maximum number of self-consistency iterations not provided.
  Presetting  1000 iterations.
  Presetting      1001 iterations before the initial mixing cycle
  is restarted anyway using the sc_init_iter criterion / keyword.
  Presetting a factor      1.000 between actual scf density residual
  and density convergence criterion sc_accuracy_rho below which sc_init_iter
  takes no effect.
 * No s.c.f. convergence criteria (sc_accuracy_*) were provided in control.in.
 * The run will proceed with a reasonable default guess, but please check whether.
 * the s.c.f. cycles seem to take too much or too little time.
  Calculation of forces was not defined in control.in. No forces will be calculated.
  Geometry relaxation not requested: no relaxation will be performed.
 * Notice: The s.c.f. convergence criterion sc_accuracy_rho was not provided.
 * We used to stop in this case, and ask the user to provide reasonable
 * scf convergence criteria. However, this led some users to employ criteria
 * that led to extremely long run times, e.g., for simple relaxation.
 * We now preset a default value for sc_accuracy_rho if it is not set.
 * You may still wish to check if this setting is too tight or too loose for your needs.
 * Based on n_atoms and forces and force-correction status, FHI-aims chose sc_accuracy_rho =  0.103280E-04 .
  No accuracy limit for integral partition fn. given. Defaulting to  0.1000E-14.
  No threshold value for u(r) in integrations given. Defaulting to  0.1000E-05.
  No occupation type (smearing scheme) given. Defaulting to Gaussian broadening, width =  0.1000E-01 eV.
  The width will be adjusted in iteration number     2 of each s.c.f. cycle (i.e., each geometry step).
  No accuracy for occupation numbers given. Defaulting to  0.1000E-07.
  No threshold value for occupation numbers given. Defaulting to  0.0000E+00.
  No accuracy for fermi level given. Defaulting to  0.1000E-19.
  Maximum # of iterations to find E_F not set. Defaulting to  200.
  Preferred method for the eigenvalue solver ('KS_method') not specified in 'control.in'.
  Calling BLACS routine to test compilation state
  Since ScaLAPACK support is enabled, defaulting to ELPA (via ELSI).
  Will not use alltoall communication since running on < 1024 CPUs.
  Threshold for basis singularities not set.
  Default threshold for basis singularities:  0.1000E-04
  partition_type (choice of integration weights) for integrals was not specified.
  | Using a version of the partition function of Stratmann and coworkers ('stratmann_sparse').
  | At each grid point, the set of atoms used to build the partition table is smoothly restricted to
  | only those atoms whose free-atom density would be non-zero at that grid point.
  Partitioning for Hartree potential was not defined. Using partition_type for integrals.
  | Adjusted default value of keyword multip_moments_threshold to:       0.10000000E-11
  | This value may affect high angular momentum components of the Hartree potential in periodic systems.
  No q(lm)/r^(l+1) cutoff set for long-range Hartree potential.
  | Using default value of  0.100000E-09 .
  | Verify using the multipole_threshold keyword.
  Defaulting to new monopole extrapolation.
  Density update method: automatic selection selected.
  Charge integration errors on the 3D integration grid will be compensated
  by explicit normalization and distribution of residual charges.
  Use the "compensate_multipole_errors" flag to change this behaviour.
  Set 'collect_eigenvectors' to be '.true.' for use_density_matrix .false.
  Found no potential conflicts with setting 'use_local_index' for this calculation.
  Flag 'use_local_index' has not been set.
  Testing whether we classify this calculation as large-scale ...
  The calculation contains less than 100 atoms. This is most likely not a large-scale calculation.
  Not setting 'use_local_index'.
 
  Consistency checks for the contents of geometry.in are next.
 
 * Warning: Initial charge and total charge of the system are inconsistent.
 * Selected charge in control.in:     1.0000* Sum of initial charges in geometry.in:     0.0000
  Number of empty states per atom not set in control.in - providing a guess from actual geometry.
  | Total number of empty states used during s.c.f. cycle:       21
  If you use a very high smearing, use empty_states (per atom!) in control.in to increase this value.

  Structure-dependent array size parameters: 
  | Number of distinct atom types in initial rho :        3
  | Maximum number of distinct radial functions  :       51
  | Maximum number of basis functions            :      246
  | Number of Kohn-Sham states (occupied + empty):       37
------------------------------------------------------------
  After read_input_data [GB]:   1032.56

  Performing system and environment tests:
  *** Environment variable OMP_NUM_THREADS is not set
  *** For performance reasons you might want to set it to 1
  | Checking for ScaLAPACK...
  | Testing pdtran()...
  | All pdtran() tests passed.
  After prepare_system [GB]:   1032.48

------------------------------------------------------------
          Preparing all fixed parts of the calculation.
------------------------------------------------------------
  Determining machine precision:
    2.225073858507201E-308
  Setting up grids for atomic and cluster calculations.

  Creating wave function, potential, and density for free atoms.
  Runtime choices for atomic solver:
  | atomic solver xc        : PBE
  | compute density gradient: 1
  | compute kinetic density : F

  Species: H

  List of occupied orbitals and eigenvalues:
    n    l              occ      energy [Ha]    energy [eV]
    1    0           1.0000        -0.238386        -6.4868


  Species: C

  List of occupied orbitals and eigenvalues:
    n    l              occ      energy [Ha]    energy [eV]
    1    0           2.0000       -10.049212      -273.4530
    2    0           2.0000        -0.504761       -13.7352
    2    1           2.0000        -0.193631        -5.2690


  Species: O

  List of occupied orbitals and eigenvalues:
    n    l              occ      energy [Ha]    energy [eV]
    1    0           2.0000       -18.927378      -515.0401
    2    0           2.0000        -0.880539       -23.9607
    2    1           4.0000        -0.331811        -9.0290


  Species: O1

  List of occupied orbitals and eigenvalues:
    n    l              occ      energy [Ha]    energy [eV]
    1    0           2.0000       -18.927378      -515.0401
    2    0           2.0000        -0.880539       -23.9607
    2    1           4.0000        -0.331811        -9.0290

  Spin-polarized or charged system:
  Charge density initialized according to selected moments and charges.

  Creating spin-polarized density from free atoms.

  Species: O
  Charge:   0.000000
  Moment:   1.000000

  List of occupied orbitals and eigenvalues:
    n    l      energy [Ha]    energy [eV]    occupation
  Spin-up
    1    0       -18.934229      -515.2266     1.00000000
    2    0        -0.906872       -24.6772     1.00000000
    2    1        -0.356742        -9.7074     2.50000000
  Spin-down
    1    0       -18.911454      -514.6069     1.00000000
    2    0        -0.847558       -23.0632     1.00000000
    2    1        -0.301004        -8.1907     1.50000000


  Species: C
  Charge:   0.000000
  Moment:   1.000000

  List of occupied orbitals and eigenvalues:
    n    l      energy [Ha]    energy [eV]    occupation
  Spin-up
    1    0       -10.051031      -273.5025     1.00000000
    2    0        -0.525597       -14.3022     1.00000000
    2    1        -0.212561        -5.7841     1.50000000
  Spin-down
    1    0       -10.035888      -273.0904     1.00000000
    2    0        -0.475307       -12.9338     1.00000000
    2    1        -0.167132        -4.5479     0.50000000


  Species: H
  Charge:   0.000000
  Moment:   1.000000

  List of occupied orbitals and eigenvalues:
    n    l      energy [Ha]    energy [eV]    occupation
  Spin-up
    1    0        -0.278991        -7.5917     1.00000000
  Spin-down
    1    0         0.090850         2.4721     0.00000000


  Adding cutoff potential to free-atom effective potential.
  Creating fixed part of basis set: Ionic, confined, hydrogenic.
 
  H                    hydrogenic:
 
  List of hydrogenic basis orbitals: 
    n    l      effective z      eigenvalue [eV]  inner max. [A]     outer max. [A]     outer radius [A]   
    2    0         2.100000       -14.9965           0.193243           1.317208           5.373006
    2    1         3.500000       -41.6672           0.602369           0.602369           4.056063
    1    0         0.850000        -9.8292           0.624871           0.624871           5.373006
    2    1         3.700000       -46.5653           0.573622           0.573622           3.910002
    2    0         1.200000        -4.5995           0.334980           2.228188           5.505995
    3    2         7.000000       -74.0753           0.680699           0.680699           3.769201
 
 
  C                    hydrogenic:
 
  List of hydrogenic basis orbitals: 
    n    l      effective z      eigenvalue [eV]  inner max. [A]     outer max. [A]     outer radius [A]   
    2    1         1.700000        -9.8152           1.245706           1.245706           5.401630
    3    2         6.000000       -54.4226           0.792453           0.792453           4.178599
    2    0         4.900000       -81.6681           0.082559           0.562749           3.353238
    4    3         9.800000       -81.6681           0.863254           0.863254           4.028125
    3    1         5.200000       -40.8774           0.305389           1.215618           4.898362
    3    0         4.300000       -27.9508           0.091041           1.610311           5.401630
    5    4        14.400000      -112.8510           0.917666           0.917666           3.883070
    3    2         6.200000       -58.1113           0.763917           0.763917           4.077671
 
 
  O                    hydrogenic:
 
  List of hydrogenic basis orbitals: 
    n    l      effective z      eigenvalue [eV]  inner max. [A]     outer max. [A]     outer radius [A]   
    2    1         1.800000       -11.0118           1.178562           1.178562           5.432602
    3    2         7.600000       -87.3182           0.624125           0.624125           3.541477
    3    0         6.400000       -61.9209           0.061167           1.081902           4.306578
    4    3        11.600000      -114.4238           0.731631           0.731631           3.585037
    3    1         6.200000       -58.1113           0.255680           1.030270           4.306578
    3    2         5.600000       -47.4081           0.847233           0.847233           4.413171
    5    4        17.600000      -168.5799           0.749740           0.749740           3.372465
    1    0         0.750000        -7.6499           0.705284           0.705284           5.366593
 
 
  O1                   ion:

  List of free ionic orbitals and eigenvalues:
    n    l      energy [Ha]    energy [eV]
    1    0       -20.485570      -557.4407
    2    0        -2.134830       -58.0917
    2    1        -1.577627       -42.9294


  List of ionic basis orbitals and eigenvalues:
    n    l      energy [Ha]    energy [eV]    outer radius [A]
    2    1        -1.577621       -42.9293       3.541477

 
  O1                   hydrogenic:
 
  List of hydrogenic basis orbitals: 
    n    l      effective z      eigenvalue [eV]  inner max. [A]     outer max. [A]     outer radius [A]   
    2    1         1.800000       -11.0118           1.178562           1.178562           5.432602
    3    2         7.600000       -87.3182           0.624125           0.624125           3.541477
    3    0         6.400000       -61.9209           0.061167           1.081902           4.306578
    4    3        11.600000      -114.4238           0.731631           0.731631           3.585037
    3    1         6.200000       -58.1113           0.255680           1.030270           4.306578
    3    2         5.600000       -47.4081           0.847233           0.847233           4.413171
    5    4        17.600000      -168.5799           0.749740           0.749740           3.372465
    1    0         0.750000        -7.6499           0.705284           0.705284           5.366593
    4    3        10.800000       -99.1854           0.787313           0.787313           3.764702
    4    2         4.700000       -18.6841           0.758962           2.365807           5.499423
    2    0         6.800000      -157.2818           0.059689           0.406863           2.739620
    1    0        12.000000     -1959.2197           0.043971           0.043971           0.816724
    1    0        10.000000     -1360.5692           0.052821           0.052821           0.981101
    1    0         6.000000      -489.8049           0.088266           0.088266           1.561224
    2    0        10.000000      -340.1423           0.040365           0.278524           2.093567
    2    1         8.000000      -217.6911           0.265231           0.265231           2.365807
    2    1         6.000000      -122.4512           0.351348           0.351348           2.841960
    3    2         8.000000       -96.7515           0.594340           0.594340           3.455938
 
  Creating atomic-like basis functions for current effective potential.

  Species H                   :

  List of atomic basis orbitals and eigenvalues:
    n    l      energy [Ha]    energy [eV]    outer radius [A]
    1    0        -0.238386        -6.4868       5.373006


  Species C                   :

  List of atomic basis orbitals and eigenvalues:
    n    l      energy [Ha]    energy [eV]    outer radius [A]
    1    0       -10.049212      -273.4530       1.934409
    2    0        -0.504761       -13.7352       5.271162
    2    1        -0.193631        -5.2690       5.401630


  Species O                   :

  List of atomic basis orbitals and eigenvalues:
    n    l      energy [Ha]    energy [eV]    outer radius [A]
    1    0       -18.927378      -515.0401       1.415765
    2    0        -0.880539       -23.9607       5.048385
    2    1        -0.331811        -9.0290       5.301386


  Species O1                  :

  List of atomic basis orbitals and eigenvalues:
    n    l      energy [Ha]    energy [eV]    outer radius [A]
    1    0       -18.927378      -515.0401       1.415765
    2    0        -0.880539       -23.9607       5.048385
    2    1        -0.331811        -9.0290       5.301386

  Assembling full basis from fixed parts.
  | Species H :   atomic orbital   1 s accepted.
  | Species H :    hydro orbital   2 s accepted.
  | Species H :    hydro orbital   1 s accepted.
  | Species H :    hydro orbital   2 s accepted.
  | Species H :    hydro orbital   2 p accepted.
  | Species H :    hydro orbital   2 p accepted.
  | Species H :    hydro orbital   3 d accepted.
  | Species C :   atomic orbital   1 s accepted.
  | Species C :    hydro orbital   2 s accepted.
  | Species C :   atomic orbital   2 s accepted.
  | Species C :    hydro orbital   3 s accepted.
  | Species C :    hydro orbital   3 p accepted.
  | Species C :   atomic orbital   2 p accepted.
  | Species C :    hydro orbital   2 p accepted.
  | Species C :    hydro orbital   3 d accepted.
  | Species C :    hydro orbital   3 d accepted.
  | Species C :    hydro orbital   4 f accepted.
  | Species C :    hydro orbital   5 g accepted.
  | Species O :   atomic orbital   1 s accepted.
  | Species O :    hydro orbital   3 s accepted.
  | Species O :   atomic orbital   2 s accepted.
  | Species O :    hydro orbital   1 s accepted.
  | Species O :    hydro orbital   3 p accepted.
  | Species O :   atomic orbital   2 p accepted.
  | Species O :    hydro orbital   2 p accepted.
  | Species O :    hydro orbital   3 d accepted.
  | Species O :    hydro orbital   3 d accepted.
  | Species O :    hydro orbital   4 f accepted.
  | Species O :    hydro orbital   5 g accepted.
  | Species O1 :    hydro orbital   1 s accepted.
  | Species O1 :    hydro orbital   1 s accepted.
  | Species O1 :   atomic orbital   1 s accepted.
  | Species O1 :    hydro orbital   1 s accepted.
  | Species O1 :    hydro orbital   2 s accepted.
  | Species O1 :    hydro orbital   2 s accepted.
  | Species O1 :    hydro orbital   3 s accepted.
  | Species O1 :   atomic orbital   2 s accepted.
  | Species O1 :    hydro orbital   1 s accepted.
  | Species O1 :    hydro orbital   2 p accepted.
  | Species O1 :    hydro orbital   2 p accepted.
  | Species O1 :    ionic orbital   2 p accepted.
  | Species O1 :    hydro orbital   3 p accepted.
  | Species O1 :   atomic orbital   2 p accepted.
  | Species O1 :    hydro orbital   2 p accepted.
  | Species O1 :    hydro orbital   3 d accepted.
  | Species O1 :    hydro orbital   3 d accepted.
  | Species O1 :    hydro orbital   3 d accepted.
  | Species O1 :    hydro orbital   4 d accepted.
  | Species O1 :    hydro orbital   4 f accepted.
  | Species O1 :    hydro orbital   4 f accepted.
  | Species O1 :    hydro orbital   5 g accepted.
 
  Basis size parameters after reduction:
  | Total number of radial functions:       51
  | Total number of basis functions :      246
 
  Per-task memory consumption for arrays in subroutine allocate_ext:
  |          12.750120MB.
  Testing on-site integration grid accuracy.
  |  Species  Function  <phi|h_atom|phi> (log., in eV)  <phi|h_atom|phi> (rad., in eV)
           1        1                 -6.4870767962                 -6.4871688290
           1        2                 13.5032046589                 13.5028982997
           1        3                 32.8195184817                 32.8119941656
           1        4                 33.8513856511                 33.7670005767 ***
           1        5                 28.8544614965                 28.8544615203
           1        6                 59.6326952547                 59.6327656460
           1        7                 60.2719308513                 60.2719305949
           2        8               -273.4529725981               -273.4529710404
           2        9                -10.7721037329                -10.7721022112
           2       10                 17.6044132585                 17.6044162047
           2       11                 53.7706460564                 53.7706913676
           2       12                 15.0973290351                 15.0973256018
           2       13                  3.8545134677                  3.8545724672
           2       14                 12.1156992586                 12.1182024425
           2       15                 29.4352039288                 29.4352041803
           2       16                 54.8741144697                 54.8740268718
           2       17                 59.3556032036                 59.3556031368
           2       18                 93.4551837140                 93.4551837995
           3       19               -515.0401491148               -515.0401445421
           3       20                 15.1629302771                 15.1629233104
           3       21                -21.6127103295                -21.6127145442
           3       22                 14.4001435709                 14.4001765994
           3       23                 20.8862585187                 20.8862589493
           3       24                 -2.4803658578                 -2.4803665012
           3       25                 13.8586387760                 13.8586021622
           3       26                 45.8331828879                 45.8331828941
           3       27                 52.1851961049                 52.1851977023
           3       28                 85.4133898762                 85.4133899074
           3       29                142.1023296234                142.1023296272
           4       30               -272.9322507263               -272.9201921991
           4       31               1665.9089384428               1665.9689460231 ***
           4       32               2095.2037268945               2095.2740317228 ***
           4       33               3047.3679718515               3047.0126722257 ***
           4       34               3234.6000205573               3231.5687072350 ***
           4       35               2428.4660356492               2422.2375592442 ***
           4       36                896.7802862158                893.3913916184 ***
           4       37               3128.2108268826               3108.2674940926 ***
           4       38                 71.8616615187                 71.1575836879 ***
           4       39                 15.4122562036                 15.4122564509
           4       40                101.7989356251                101.7989355629
           4       41                121.1064459338                121.1064460850
           4       42                271.5759585347                271.5759823152
           4       43                159.3966255928                159.3962927971
           4       44                153.6473243407                153.6504704040
           4       45                 50.7421815376                 50.7421815945
           4       46                 88.5010368311                 88.5010331057
           4       47                 82.9872957917                 82.9873669217
           4       48                 36.7418806245                 36.7419113217
           4       49                 85.4133898762                 85.4133899074
           4       50                115.1018427582                115.1018451832
           4       51                142.1023296234                142.1023296272
 * Note: Onsite integrals marked "***" above are less accurate than
 * onsite_accuracy_threshold =    0.03000 eV. Usually, this is harmless.
 * When in doubt, tighten the "radial" and/or "radial_multiplier" flags to check.

  Preparing densities etc. for the partition functions (integrals / Hartree potential).

  Preparations completed.
  max(cpu_time)          :      0.362 s.
  Wall clock time (cpu1) :      0.359 s.
------------------------------------------------------------
  After prepare_scf [GB]:   1031.13

  Initializing index lists of integration centers etc. from given atomic structure:
  | Number of centers in hartree potential         :        10
  | Number of centers in hartree multipole         :        10
  | Number of centers in electron density summation:        10
  | Number of centers in basis integrals           :        10
  | Number of centers in integrals                 :        10
  | Number of centers in hamiltonian               :        10
  After initialize_bc_dependent_lists [GB]:   1031.13

------------------------------------------------------------
          Begin self-consistency loop: Initialization.

          Date     :  20250311, Time     :  192637.372
------------------------------------------------------------
  Available memory per node after initialize_hartree_non_periodic_ewald [GB]:   1031.13
  Available memory per node after initialize_recip_hartree_potential [GB]:   1031.13
  * Using 20 tasks for Scalapack Eigenvalue solver.
  Detailed listing of tasks and assigned k-points:
  (for non-periodic systems, the "k-point" denotes an internal label only)
   Task     0 k-point     1 on RSL-arvutus
   Task     1 k-point     1 on RSL-arvutus
   Task     2 k-point     1 on RSL-arvutus
   Task     3 k-point     1 on RSL-arvutus
   Task     4 k-point     1 on RSL-arvutus
   Task     5 k-point     1 on RSL-arvutus
   Task     6 k-point     1 on RSL-arvutus
   Task     7 k-point     1 on RSL-arvutus
   Task     8 k-point     1 on RSL-arvutus
   Task     9 k-point     1 on RSL-arvutus
   Task    10 k-point     1 on RSL-arvutus
   Task    11 k-point     1 on RSL-arvutus
   Task    12 k-point     1 on RSL-arvutus
   Task    13 k-point     1 on RSL-arvutus
   Task    14 k-point     1 on RSL-arvutus
   Task    15 k-point     1 on RSL-arvutus
   Task    16 k-point     1 on RSL-arvutus
   Task    17 k-point     1 on RSL-arvutus
   Task    18 k-point     1 on RSL-arvutus
   Task    19 k-point     1 on RSL-arvutus
  Tasks:    20 split into      5 X      4 BLACS grid
  Calculating block size based on n_basis =          246  max_nprow =            5  max_npcol =            4
  ScaLAPACK block size set to:           16
  Allocating        0.026 MB for ovlp
  Allocating        0.053 MB for ham
  Allocating        0.053 MB for eigenvec
  Required Scalapack workspace - INTEGER:            1  REAL:             1
  Available memory per node after initialize_scalapack [GB]:   1031.13
  Available memory per node after aims_elsi_init_scf [GB]:   1031.13
  Available memory per node after initialize_fixed_grids [GB]:   1031.13
  Partitioning the integration grid into batches with parallel hashing+maxmin method.
  | Number of batches:     1969
  | Maximal batch size:     198
  | Minimal batch size:      50
  | Average batch size:      81.804
  | Standard deviation of batch sizes:      24.635

  Integration load balanced across    20 MPI tasks.
  Work distribution over tasks is as follows:
  Task     0 has       8095 integration points.
  Task     1 has       7995 integration points.
  Task     2 has       7995 integration points.
  Task     3 has       7999 integration points.
  Task     4 has       7991 integration points.
  Task     5 has       8152 integration points.
  Task     6 has       8019 integration points.
  Task     7 has       8011 integration points.
  Task     8 has       8076 integration points.
  Task     9 has       8138 integration points.
  Task    10 has       8160 integration points.
  Task    11 has       7989 integration points.
  Task    12 has       7999 integration points.
  Task    13 has       8002 integration points.
  Task    14 has       8100 integration points.
  Task    15 has       8082 integration points.
  Task    16 has       8000 integration points.
  Task    17 has       8164 integration points.
  Task    18 has       8021 integration points.
  Task    19 has       8084 integration points.
  Available memory per node after partition_grid [GB]:   1031.13
  Initializing partition tables, free-atom densities, potentials, etc. across the integration grid (initialize_grid_storage).
  | initialize_grid_storage: Actual outermost partition radius vs. multipole_radius_free
  | (-- VB: in principle, multipole_radius_free should be larger, hence this output)
  | Species        1: Confinement radius =              6.000000000000000 AA, multipole_radius_free =              6.071692442739658 AA.
  | Species        1: outer_partition_radius set to              6.071692442739658 AA .
  | Species        2: Confinement radius =              6.000000000000000 AA, multipole_radius_free =              6.029870734432609 AA.
  | Species        2: outer_partition_radius set to              6.029870734432609 AA .
  | Species        3: Confinement radius =              6.000000000000000 AA, multipole_radius_free =              6.064445521808699 AA.
  | Species        3: outer_partition_radius set to              6.064445521808699 AA .
  | Species        4: Confinement radius =              6.000000000000000 AA, multipole_radius_free =              6.064445521808699 AA.
  | Species        4: outer_partition_radius set to              6.064445521808699 AA .
  | The sparse table of interatomic distances needs          1.12 kbyte instead of         0.80 kbyte of memory.
  | Using the partition_type stratmann_smoother will reduce your memory usage.
  | Net number of integration points:   161072
  | of which are non-zero points    :   133670
  Available memory per node after initialize_grid_storage_p1 [GB]:   1031.13
  Renormalizing the initial density to the exact electron count on the 3D integration grid.
  | Initial density: Formal number of electrons (from input files) :      32.0000000000
  | Integrated number of electrons on 3D grid     :      32.0000021714
  | Charge integration error                      :       0.0000021714
  | Normalization factor for density and gradient :       0.9999999321
  Renormalizing the free-atom superposition density to the exact electron count on the 3D integration grid.
  | Formal number of electrons (from input files) :      31.0000000000
  | Integrated number of electrons on 3D grid     :      32.0000022930
  | Charge integration error                      :       0.0000022930
  | Normalization factor for density and gradient :       0.9999999283
  Obtaining max. number of non-zero basis functions in each batch (get_n_compute_maxes).
  | Maximal number of non-zero basis functions:      246 in task     0
  | Maximal number of non-zero basis functions:      246 in task     1
  | Maximal number of non-zero basis functions:      246 in task     2
  | Maximal number of non-zero basis functions:      246 in task     3
  | Maximal number of non-zero basis functions:      246 in task     4
  | Maximal number of non-zero basis functions:      246 in task     5
  | Maximal number of non-zero basis functions:      246 in task     6
  | Maximal number of non-zero basis functions:      246 in task     7
  | Maximal number of non-zero basis functions:      246 in task     8
  | Maximal number of non-zero basis functions:      246 in task     9
  | Maximal number of non-zero basis functions:      246 in task    10
  | Maximal number of non-zero basis functions:      246 in task    11
  | Maximal number of non-zero basis functions:      246 in task    12
  | Maximal number of non-zero basis functions:      246 in task    13
  | Maximal number of non-zero basis functions:      246 in task    14
  | Maximal number of non-zero basis functions:      246 in task    15
  | Maximal number of non-zero basis functions:      246 in task    16
  | Maximal number of non-zero basis functions:      246 in task    17
  | Maximal number of non-zero basis functions:      246 in task    18
  | Maximal number of non-zero basis functions:      246 in task    19
  Selecting the method for density update.
  Loop over occupied states selected for charge density update.
  Available memory per node after get_n_compute_maxes_p1 [GB]:   1031.13
  Initialize hartree_potential_storage
  Max. number of atoms included in rho_multipole:           10

  Evaluating partitioned Hartree potential by multipole expansion.
  | Original multipole sum: apparent total charge =  -0.135126E-13
  | Sum of charges compensated after spline to logarithmic grids =  -0.543358E-06
  | Analytical far-field extrapolation by fixed multipoles:
  | Hartree multipole sum: apparent total charge =  -0.134719E-13
  Summing up the Hartree potential.
  Time summed over all CPUs for potential: real work        0.016 s, elapsed        0.017 s
  | RMS charge density error from multipole expansion :   0.553924E-03

  Allocating        0.139 MB for KS_eigenvector
  Available memory per node after allocate_matrices [GB]:   1031.12
  Available memory per node after init_comm_sparse_local_matrix_scalapack [GB]:   1031.12
  Integrating Hamiltonian matrix: batch-based integration.
  Time summed over all CPUs for integration: real work        4.273 s, elapsed        4.394 s
  Available memory per node after integrate hamiltonian matrix [GB]:   1031.12
  Integrating overlap matrix.
  Time summed over all CPUs for integration: real work        0.707 s, elapsed        0.731 s
  Available memory per node after integrate ovlp matrix [GB]:   1031.12
  Available memory per node after ASI_callbacks invoke [GB]:   1031.12
  Deallocating overlap matrix.
  Available memory per node after save_overlap_scalapack [GB]:   1031.12

  Updating Kohn-Sham eigenvalues and eigenvectors using ELSI and the ELPA eigensolver.
  Overlap matrix is not singular
  | Lowest and highest eigenvalues :  0.1689E-03,  0.7284E+01
  Finished singularity check of overlap matrix
  | Time :     0.008 s
  Starting ELPA eigensolver
  Finished Cholesky decomposition
  | Time :     0.003 s
  Finished transformation to standard eigenproblem
  | Time :     0.001 s
  Finished solving standard eigenproblem
  | Time :     0.006 s
  Finished back-transformation of eigenvectors
  | Time :     0.001 s
  Starting ELPA eigensolver
  Finished transformation to standard eigenproblem
  | Time :     0.002 s
  Finished solving standard eigenproblem
  | Time :     0.006 s
  Finished back-transformation of eigenvectors
  | Time :     0.000 s
  Determining occupation numbers for Kohn-Sham eigenstates.
  | Chemical potential (Fermi level) in eV                 : -.67735685E+01
  | Error in electron count due to remaining E_F inaccuracy: 0.00000000E+00
  | Note that, for insulating systems, the printed 'chemical potential' value is not uniquely defined.
  | It can be anywhere in the energy gap, as long as it correctly separates occupied and unoccupied states.
  | In systems with a gap, the physically relevant chemical potential is the VBM or HOMO.
  | Maximum occupation number of highest empty state:  0.00E+00

  Available memory per node after advance_KS_solution [GB]:   1031.12
  Writing Kohn-Sham eigenvalues.

  Spin-up eigenvalues:

  State    Occupation    Eigenvalue [Ha]    Eigenvalue [eV]
      1       0.00000         -19.011130         -517.31917
      2       1.00000         -10.164394         -276.58723
      3       1.00000         -10.164394         -276.58722
      4       1.00000         -10.142306         -275.98620
      5       1.00000          -1.158698          -31.52978
      6       1.00000          -0.897229          -24.41486
      7       1.00000          -0.850716          -23.14916
      8       1.00000          -0.673119          -18.31650
      9       1.00000          -0.607025          -16.51798
     10       1.00000          -0.604075          -16.43772
     11       1.00000          -0.594075          -16.16560
     12       1.00000          -0.555434          -15.11414
     13       1.00000          -0.552219          -15.02665
     14       1.00000          -0.540167          -14.69869
     15       1.00000          -0.493651          -13.43292
     16       1.00000          -0.413858          -11.26165
     17       0.00000          -0.211887           -5.76574
     18       0.00000          -0.076149           -2.07213
     19       0.00000          -0.041610           -1.13228
     20       0.00000          -0.035713           -0.97179
     21       0.00000          -0.026136           -0.71121
     22       0.00000          -0.017783           -0.48390
     23       0.00000          -0.011465           -0.31198
     24       0.00000          -0.002852           -0.07761
     25       0.00000           0.014887            0.40509
     26       0.00000           0.041289            1.12353
     27       0.00000           0.049655            1.35118
     28       0.00000           0.051142            1.39165
     29       0.00000           0.085070            2.31488
     30       0.00000           0.091557            2.49140
     31       0.00000           0.100563            2.73647
     32       0.00000           0.137422            3.73943
     33       0.00000           0.139097            3.78502
     34       0.00000           0.149347            4.06395
     35       0.00000           0.178592            4.85974
     36       0.00000           0.190139            5.17393
     37       0.00000           0.198242            5.39443

  Spin-down eigenvalues:

  State    Occupation    Eigenvalue [Ha]    Eigenvalue [eV]
      1       1.00000         -18.987991         -516.68954
      2       1.00000         -10.145893         -276.08380
      3       1.00000         -10.145893         -276.08379
      4       1.00000         -10.126325         -275.55133
      5       1.00000          -1.092407          -29.72589
      6       1.00000          -0.803083          -21.85300
      7       1.00000          -0.739641          -20.12666
      8       1.00000          -0.577719          -15.72054
      9       1.00000          -0.514122          -13.98996
     10       1.00000          -0.513052          -13.96087
     11       1.00000          -0.489856          -13.32965
     12       1.00000          -0.429885          -11.69777
     13       1.00000          -0.413279          -11.24589
     14       1.00000          -0.404037          -10.99440
     15       1.00000          -0.402488          -10.95225
     16       1.00000          -0.344696           -9.37967
     17       0.00000          -0.133174           -3.62385
     18       0.00000          -0.014460           -0.39349
     19       0.00000           0.022505            0.61240
     20       0.00000           0.033437            0.90988
     21       0.00000           0.036351            0.98915
     22       0.00000           0.054525            1.48371
     23       0.00000           0.056539            1.53850
     24       0.00000           0.074492            2.02702
     25       0.00000           0.075570            2.05637
     26       0.00000           0.105592            2.87332
     27       0.00000           0.123043            3.34816
     28       0.00000           0.132324            3.60073
     29       0.00000           0.133374            3.62928
     30       0.00000           0.155180            4.22265
     31       0.00000           0.181405            4.93629
     32       0.00000           0.192826            5.24705
     33       0.00000           0.206735            5.62554
     34       0.00000           0.215267            5.85772
     35       0.00000           0.231587            6.30180
     36       0.00000           0.241277            6.56549
     37       0.00000           0.252710            6.87660

  Current spin moment of the entire structure :
  | N = N_up - N_down :    1.00
  | S                 :    0.50
  | J                 :    2.00

  Highest occupied state (VBM) at     -9.37966757 eV
  | Occupation number:      1.00000000
  | Spin channel:        2

  Lowest unoccupied state (CBM) at  -517.31917269 eV
  | Occupation number:      0.00000000
  | Spin channel:        1

  Overall HOMO-LUMO gap:   -507.93950512 eV.
  Calculating total energy contributions from superposition of free atom densities.

  Total energy components:
  | Sum of eigenvalues            :         -94.54172718 Ha       -2572.61128960 eV
  | XC energy correction          :         -26.55723857 Ha        -722.65922996 eV
  | XC potential correction       :          34.14384219 Ha         929.10121826 eV
  | Free-atom electrostatic energy:         -86.61307104 Ha       -2356.86157885 eV
  | Hartree energy correction     :          -0.45594008 Ha         -12.40676092 eV
  | Entropy correction            :           0.00000000 Ha           0.00000000 eV
  | ---------------------------
  | Total energy                  :        -174.02413468 Ha       -4735.43764106 eV
  | Total energy, T -> 0          :        -174.02413468 Ha       -4735.43764106 eV  <-- do not rely on this value for anything but (periodic) metals
  | Electronic free energy        :        -174.02413468 Ha       -4735.43764106 eV

  Derived energy quantities:
  | Kinetic energy                :         210.80091149 Ha        5736.18465539 eV
  | Electrostatic energy          :        -358.26780760 Ha       -9748.96306650 eV
  | Energy correction for multipole
  | error in Hartree potential    :          -0.00112122 Ha          -0.03051005 eV
  | Sum of eigenvalues per atom                           :        -257.26112896 eV
  | Total energy (T->0) per atom                          :        -473.54376411 eV  <-- do not rely on this value for anything but (periodic) metals
  | Electronic free energy per atom                       :        -473.54376411 eV

  End scf initialization - timings             :  max(cpu_time)    wall_clock(cpu1)
  | Time for scf. initialization                :        0.410 s           0.411 s
  | Boundary condition initialization           :        0.015 s           0.015 s
  | Integration                                 :        0.258 s           0.257 s
  | Solution of K.-S. eqns.                     :        0.030 s           0.030 s
  | Grid partitioning                           :        0.064 s           0.063 s
  | Preloading free-atom quantities on grid     :        0.048 s           0.049 s
  | Free-atom superposition energy              :        0.007 s           0.006 s
  | Total energy evaluation                     :        0.000 s           0.001 s

  Partial memory accounting:
  | Current value for overall tracked memory usage:
  |   Minimum:        0.704 MB (on task  7)
  |   Maximum:        0.737 MB (on task  0)
  |   Average:        0.721 MB
  | Peak value for overall tracked memory usage:
  |   Minimum:        7.721 MB (on task  7 after allocating zora_vector2)
  |   Maximum:        7.754 MB (on task  0 after allocating zora_vector2)
  |   Average:        7.737 MB
  | Largest tracked array allocation so far:
  |   Minimum:        2.230 MB (zora_vector1 on task  0)
  |   Maximum:        2.230 MB (zora_vector1 on task  0)
  |   Average:        2.230 MB
  Note:  These values currently only include a subset of arrays which are explicitly tracked.
  The "true" memory usage will be greater.
------------------------------------------------------------
  Available memory after initialize_scf [GB]:   1031.12
  Available memory after allocating mixing [GB]:   1031.12
  Evaluating new KS density.
  Integration grid: deviation in total charge (<rho> - N_e) =   1.065814E-14
  | <rho_up-rho_dn> = N_up-N_dn =     -1.0000; <|rho_up-rho_dn|> =      2.0008

  Time for density update prior                :  max(cpu_time)    wall_clock(cpu1)
  | self-consistency iterative process          :        0.061 s           0.061 s
  Available memory before start of SCF loop [GB]:   1031.12

------------------------------------------------------------
          Begin self-consistency iteration #    1

  Date     :  20250311, Time     :  192637.844
------------------------------------------------------------
  Pulay mixing of updated and previous charge densities.
  Available memory per node after mixing [GB]:   1031.12
  Renormalizing the density to the exact electron count on the 3D integration grid.
  | Formal number of electrons (from input files) :      31.0000000000
  | Integrated number of electrons on 3D grid     :      31.9499999993
  | Charge integration error                      :       0.9499999993
  | Normalization factor for density and gradient :       0.9702660407
  * The proposed renormalization factor deviates too far from 1.
  * Since the initial charge in geometry.in was not equal to the formal charge,
  * it is not yet safe to renormalize the charge. If this message persists
  * even in the final s.c.f. cycle, your integration accuracy may not be good enough.

  Evaluating partitioned Hartree potential by multipole expansion.
  | Original multipole sum: apparent total charge =   0.500000E-01
  | Sum of charges compensated after spline to logarithmic grids =   0.558495E-06
  | Analytical far-field extrapolation by fixed multipoles:
  | Hartree multipole sum: apparent total charge =   0.500000E-01
  Summing up the Hartree potential.
  Time summed over all CPUs for potential: real work        0.016 s, elapsed        0.017 s
  | RMS charge density error from multipole expansion :   0.923600E-03

  Integrating Hamiltonian matrix: batch-based integration.
  Time summed over all CPUs for integration: real work        4.126 s, elapsed        4.305 s

  Updating Kohn-Sham eigenvalues and eigenvectors using ELSI and the ELPA eigensolver.
  Starting ELPA eigensolver
  Finished transformation to standard eigenproblem
  | Time :     0.001 s
  Finished solving standard eigenproblem
  | Time :     0.006 s
  Finished back-transformation of eigenvectors
  | Time :     0.001 s
  Starting ELPA eigensolver
  Finished transformation to standard eigenproblem
  | Time :     0.001 s
  Finished solving standard eigenproblem
  | Time :     0.006 s
  Finished back-transformation of eigenvectors
  | Time :     0.000 s
  Determining occupation numbers for Kohn-Sham eigenstates.
  | Chemical potential (Fermi level) in eV                 : -.71439406E+01
  | Error in electron count due to remaining E_F inaccuracy: 0.00000000E+00
  | Note that, for insulating systems, the printed 'chemical potential' value is not uniquely defined.
  | It can be anywhere in the energy gap, as long as it correctly separates occupied and unoccupied states.
  | In systems with a gap, the physically relevant chemical potential is the VBM or HOMO.
  | Maximum occupation number of highest empty state:  0.00E+00

  Writing Kohn-Sham eigenvalues.

  Spin-up eigenvalues:

[...]

  Spin-down eigenvalues:

  State    Occupation    Eigenvalue [Ha]    Eigenvalue [eV]
      1       1.00000         -21.943988         -597.12631
      2       1.00000         -10.323029         -280.90392
      3       1.00000         -10.135299         -275.79552
      4       1.00000         -10.135299         -275.79551
      5       1.00000          -1.410236          -38.37447
      6       1.00000          -0.965448          -26.27117
      7       1.00000          -0.886636          -24.12660
      8       1.00000          -0.841981          -22.91148
      9       1.00000          -0.766235          -20.85030
     10       1.00000          -0.745404          -20.28348
     11       1.00000          -0.696373          -18.94928
     12       1.00000          -0.619561          -16.85910
     13       1.00000          -0.602423          -16.39277
     14       1.00000          -0.587490          -15.98641
     15       1.00000          -0.582522          -15.85124
     16       1.00000          -0.553841          -15.07078
     17       0.00000          -0.379890          -10.33732
     18       0.00000          -0.189315           -5.15153
     19       0.00000          -0.135608           -3.69007
     20       0.00000          -0.133119           -3.62234
     21       0.00000          -0.125489           -3.41473
     22       0.00000          -0.114263           -3.10925
     23       0.00000          -0.106774           -2.90548
     24       0.00000          -0.100124           -2.72450
     25       0.00000          -0.084399           -2.29661
     26       0.00000          -0.078053           -2.12394
     27       0.00000          -0.057610           -1.56764
     28       0.00000          -0.045264           -1.23171
     29       0.00000          -0.042849           -1.16599
     30       0.00000           0.001778            0.04839
     31       0.00000           0.016296            0.44344
     32       0.00000           0.026374            0.71766
     33       0.00000           0.029292            0.79708
     34       0.00000           0.035871            0.97610
     35       0.00000           0.055866            1.52018
     36       0.00000           0.064643            1.75902
     37       0.00000           0.100220            2.72712

  Current spin moment of the entire structure :
  | N = N_up - N_down :    1.00
  | S                 :    0.50
  | J                 :    2.00

  Highest occupied state (VBM) at    -14.97032605 eV
  | Occupation number:      1.00000000
  | Spin channel:        1

  Lowest unoccupied state (CBM) at  -554.13803171 eV
  | Occupation number:      0.00000000
  | Spin channel:        1

  Overall HOMO-LUMO gap:   -539.16770566 eV.

  | Chemical Potential                          :   -14.29722630 eV
  | Note that, for insulating systems, the printed 'chemical potential' value is not uniquely defined.
  | It can be anywhere in the energy gap, as long as it correctly separates occupied and unoccupied states.
  | In systems with a gap, the physically relevant chemical potential is the VBM or HOMO.

  Self-consistency cycle converged.


------------------------------------------------------------
  End self-consistency iteration #    27       :  max(cpu_time)    wall_clock(cpu1)
  | Time for this iteration                     :        0.260 s           0.260 s
  | Charge density update                       :        0.000 s           0.000 s
  | Density mixing                              :        0.002 s           0.002 s
  | Hartree multipole update                    :        0.002 s           0.001 s
  | Hartree multipole summation                 :        0.017 s           0.017 s
  | Integration                                 :        0.224 s           0.224 s
  | Solution of K.-S. eqns.                     :        0.015 s           0.015 s
  | Total energy evaluation                     :        0.000 s           0.000 s

  Partial memory accounting:
  | Current value for overall tracked memory usage:
  |   Minimum:        9.604 MB (on task 11)
  |   Maximum:        9.817 MB (on task 17)
  |   Average:        9.692 MB
  | Peak value for overall tracked memory usage:
  |   Minimum:       16.388 MB (on task 11 after allocating zora_vector2)
  |   Maximum:       16.602 MB (on task 17 after allocating zora_vector2)
  |   Average:       16.477 MB
  | Largest tracked array allocation so far:
  |   Minimum:        2.926 MB (previous_rho_gradient_diff on task 11)
  |   Maximum:        2.990 MB (previous_rho_gradient_diff on task 17)
  |   Average:        2.949 MB
  Note:  These values currently only include a subset of arrays which are explicitly tracked.
  The "true" memory usage will be greater.
------------------------------------------------------------

------------------------------------------------------------
          Post-processing: scaled ZORA corrections to eigenvalues and total energy.

  Date     :  20250311, Time     :  192646.336
------------------------------------------------------------
  Computing correction matrix for scaled ZORA eigenvalues.
  Evaluating scaled zora correction for each Kohn-Sham eigenstate.
  Evaluating scaled zora correction for each Kohn-Sham eigenstate.
  Determining occupation numbers for Kohn-Sham eigenstates.
  | Chemical potential (Fermi level) in eV                 : -.14284461E+02
  | Error in electron count due to remaining E_F inaccuracy: 0.00000000E+00
  | Note that, for insulating systems, the printed 'chemical potential' value is not uniquely defined.
  | It can be anywhere in the energy gap, as long as it correctly separates occupied and unoccupied states.
  | In systems with a gap, the physically relevant chemical potential is the VBM or HOMO.
  | Maximum occupation number of highest empty state:  0.00E+00

  Writing Kohn-Sham eigenvalues.

  Spin-up eigenvalues:

  State    Occupation    Eigenvalue [Ha]    Eigenvalue [eV]
      1       0.00000         -20.348057         -553.69880
      2       1.00000         -10.319764         -280.81507
      3       1.00000         -10.131098         -275.68120
      4       1.00000         -10.131098         -275.68120
      5       1.00000          -1.365778          -37.16471
      6       1.00000          -0.960652          -26.14068
      7       1.00000          -0.885480          -24.09514
      8       1.00000          -0.811586          -22.08439
      9       1.00000          -0.737359          -20.06457
     10       1.00000          -0.724690          -19.71982
     11       1.00000          -0.693528          -18.87186
     12       1.00000          -0.614613          -16.72448
     13       1.00000          -0.601182          -16.35898
     14       1.00000          -0.582978          -15.86365
     15       1.00000          -0.579024          -15.75606
     16       1.00000          -0.550125          -14.96965
     17       0.00000          -0.374817          -10.19929
     18       0.00000          -0.187935           -5.11398
     19       0.00000          -0.132632           -3.60909
     20       0.00000          -0.131592           -3.58081
     21       0.00000          -0.125358           -3.41117
     22       0.00000          -0.113457           -3.08731
     23       0.00000          -0.106393           -2.89509
     24       0.00000          -0.100555           -2.73624
     25       0.00000          -0.084675           -2.30412
     26       0.00000          -0.078082           -2.12472
     27       0.00000          -0.057596           -1.56726
     28       0.00000          -0.043319           -1.17877
     29       0.00000          -0.043194           -1.17537
     30       0.00000           0.002237            0.06086
     31       0.00000           0.017916            0.48752
     32       0.00000           0.026761            0.72819
     33       0.00000           0.036607            0.99614
     34       0.00000           0.039433            1.07302
     35       0.00000           0.057971            1.57746
     36       0.00000           0.064373            1.75167
     37       0.00000           0.103230            2.80904

  Spin-down eigenvalues:

  State    Occupation    Eigenvalue [Ha]    Eigenvalue [eV]
      1       1.00000         -21.926005         -596.63696
      2       1.00000         -10.318647         -280.78468
      3       1.00000         -10.130998         -275.67849
      4       1.00000         -10.130998         -275.67848
      5       1.00000          -1.410114          -38.37116
      6       1.00000          -0.965404          -26.26997
      7       1.00000          -0.886602          -24.12566
      8       1.00000          -0.841915          -22.90967
      9       1.00000          -0.766178          -20.84878
     10       1.00000          -0.745354          -20.28211
     11       1.00000          -0.696345          -18.94852
     12       1.00000          -0.619540          -16.85855
     13       1.00000          -0.602406          -16.39230
     14       1.00000          -0.587463          -15.98568
     15       1.00000          -0.582506          -15.85079
     16       1.00000          -0.553819          -15.07019
     17       0.00000          -0.379870          -10.33679
     18       0.00000          -0.189312           -5.15143
     19       0.00000          -0.135603           -3.68995
     20       0.00000          -0.133117           -3.62229
     21       0.00000          -0.125487           -3.41468
     22       0.00000          -0.114259           -3.10915
     23       0.00000          -0.106773           -2.90543
     24       0.00000          -0.100122           -2.72445
     25       0.00000          -0.084397           -2.29657
     26       0.00000          -0.078052           -2.12391
     27       0.00000          -0.057609           -1.56762
     28       0.00000          -0.045264           -1.23168
     29       0.00000          -0.042848           -1.16596
     30       0.00000           0.001778            0.04839
     31       0.00000           0.016296            0.44343
     32       0.00000           0.026373            0.71765
     33       0.00000           0.029291            0.79704
     34       0.00000           0.035870            0.97608
     35       0.00000           0.055864            1.52014
     36       0.00000           0.064641            1.75898
     37       0.00000           0.100217            2.72706

  Current spin moment of the entire structure :
  | N = N_up - N_down :    1.00
  | S                 :    0.50
  | J                 :    2.00

  Highest occupied state (VBM) at    -14.96965491 eV
  | Occupation number:      1.00000000
  | Spin channel:        1

  Lowest unoccupied state (CBM) at  -553.69880014 eV
  | Occupation number:      0.00000000
  | Spin channel:        1

  Overall HOMO-LUMO gap:   -538.72914523 eV.

  Total energy components:
  | Sum of eigenvalues            :        -101.45325020 Ha       -2760.68340002 eV
  | XC energy correction          :         -25.22882890 Ha        -686.51136378 eV
  | XC potential correction       :          32.45598444 Ha         883.17227201 eV
  | Free-atom electrostatic energy:         -86.61307104 Ha       -2356.86157885 eV
  | Hartree energy correction     :           7.49987423 Ha         204.08196126 eV
  | Entropy correction            :          -0.00000000 Ha          -0.00000000 eV
  | ---------------------------
  | Total energy                  :        -173.33929148 Ha       -4716.80210939 eV
  | Total energy, T -> 0          :        -173.33929148 Ha       -4716.80210939 eV  <-- do not rely on this value for anything but (periodic) metals
  | Electronic free energy        :        -173.33929148 Ha       -4716.80210939 eV

  Derived energy quantities:
  | Kinetic energy                :         171.54787926 Ha        4668.05530282 eV
  | Electrostatic energy          :        -319.65834184 Ha       -8698.34604843 eV
  | Energy correction for multipole
  | error in Hartree potential    :          -0.01582182 Ha          -0.43053353 eV
  | Sum of eigenvalues per atom                           :        -276.06834000 eV
  | Total energy (T->0) per atom                          :        -471.68021094 eV  <-- do not rely on this value for anything but (periodic) metals
  | Electronic free energy per atom                       :        -471.68021094 eV
  End evaluation of scaled ZORA corrections.
  | Time for scaled ZORA corrections            :        0.254 s           0.254 s
------------------------------------------------------------

  Energy and forces in a compact form:
  | Total energy uncorrected      :         -0.471680210938913E+04 eV
  | Total energy corrected        :         -0.471680210938913E+04 eV  <-- do not rely on this value for anything but (periodic) metals
  | Electronic free energy        :         -0.471680210938913E+04 eV

  ------------------------------------ 
  Start decomposition of the XC Energy 
  ------------------------------------ 
  X and C from original XC functional choice 
  Hartree-Fock Energy :          0.000000000 Ha              0.000000000 eV
  X Energy            :        -24.216469394 Ha           -658.963659904 eV
  C Energy            :         -1.012359510 Ha            -27.547703873 eV
  XC Energy w/o HF    :        -25.228828903 Ha           -686.511363777 eV
  Total XC Energy     :        -25.228828903 Ha           -686.511363777 eV
  ------------------------------------ 
  LDA X and C from self-consistent density 
  X Energy LDA        :        -22.001141526 Ha           -598.681521507 eV
  C Energy LDA        :         -1.947090189 Ha            -52.983019782 eV
  ------------------------------------ 
  End decomposition of the XC Energy 
  ------------------------------------ 

------------------------------------------------------------

------------------------------------------------------------------------------
  Final output of selected total energy values:

  The following output summarizes some interesting total energy values
  at the end of a run (AFTER all relaxation, molecular dynamics, etc.).

  | Total energy of the DFT / Hartree-Fock s.c.f. calculation      :          -4716.802109389 eV
  | Final zero-broadening corrected energy (caution - metals only) :          -4716.802109389 eV
  | For reference only, the value of 1 Hartree used in FHI-aims is :             27.211384500 eV

  Before relying on these values, please be sure to understand exactly which
  total energy value is referred to by a given number. Different objects may
  all carry the same name 'total energy'. Definitions:

  Total energy of the DFT / Hartree-Fock s.c.f. calculation:
  | Note that this energy does not include ANY quantities calculated after the
  | s.c.f. cycle, in particular not ANY RPA, MP2, etc. many-body perturbation terms.
  | Scalar relativistic effects have been included in the 'scaled ZORA' approximation.

  Final zero-broadening corrected energy:
  | For metallic systems only, a broadening of the occupation numbers at the Fermi
  | level can be extrapolated back to zero broadening by an electron-gas inspired
  | formula. For all systems that are not real metals, this value can be
  | meaningless and should be avoided.

------------------------------------------------------------------------------
  Methods described in the following list of references were used in this FHI-aims run.
  If you publish the results, please make sure to cite these reference if they apply.
  FHI-aims is an academic code, and for our developers (often, Ph.D. students
  and postdocs), scientific credit in the community is essential.
  Thank you for helping us!

  For any use of FHI-aims, please cite:

    Volker Blum, Ralf Gehrke, Felix Hanke, Paula Havu, Ville Havu,
    Xinguo Ren, Karsten Reuter, and Matthias Scheffler
    'Ab initio molecular simulations with numeric atom-centered orbitals'
    Computer Physics Communications 180, 2175-2196 (2009)
    http://doi.org/10.1016/j.cpc.2009.06.022


  The ELSI infrastructure was used in your run to solve the Kohn-Sham electronic structure.
  Please check out https://wordpress.elsi-interchange.org to learn more.
  If scalability is important for your project, please acknowledge ELSI by citing:

    V. W-z. Yu, F. Corsetti, A. Garcia, W. P. Huhn, M. Jacquelin, W. Jia,
    B. Lange, L. Lin, J. Lu, W. Mi, A. Seifitokaldani, A. Vazquez-Mayagoitia,
    C. Yang, H. Yang, and V. Blum
    'ELSI: A unified software interface for Kohn-Sham electronic structure solvers'
    Computer Physics Communications 222, 267-285 (2018).
    http://doi.org/10.1016/j.cpc.2017.09.007


  For the real-space grid partitioning and parallelization used in this calculation, please cite:

    Ville Havu, Volker Blum, Paula Havu, and Matthias Scheffler,
    'Efficient O(N) integration for all-electron electronic structure calculation'
    'using numerically tabulated basis functions'
    Journal of Computational Physics 228, 8367-8379 (2009).
    http://doi.org/10.1016/j.jcp.2009.08.008

  Of course, there are many other important community references, e.g., those cited in the
  above references. Our list is limited to references that describe implementations in the
  FHI-aims code. The reason is purely practical (length of this list) - please credit others as well.

------------------------------------------------------------
          Leaving FHI-aims.
          Date     :  20250311, Time     :  192646.607

          Computational steps:
          | Number of self-consistency cycles          :           27
          | Number of SCF (re)initializations          :            1

          Detailed time accounting                     :  max(cpu_time)    wall_clock(cpu1)
          | Total time                                  :        9.656 s           9.657 s
          | Preparation time                            :        0.362 s           0.359 s
          | Boundary condition initalization            :        0.015 s           0.015 s
          | Grid partitioning                           :        0.064 s           0.063 s
          | Preloading free-atom quantities on grid     :        0.048 s           0.049 s
          | Free-atom superposition energy              :        0.007 s           0.006 s
          | Total time for integrations                 :        6.195 s           6.192 s
          | Total time for solution of K.-S. equations  :        0.449 s           0.446 s
          | Total time for density update               :        1.636 s           1.636 s
          | Total time for mixing                       :        0.047 s           0.047 s
          | Total time for Hartree multipole update     :        0.045 s           0.050 s
          | Total time for Hartree multipole sum        :        0.477 s           0.477 s
          | Total time for total energy evaluation      :        0.002 s           0.003 s
          | Total time for scaled ZORA corrections      :        0.254 s           0.254 s

          Partial memory accounting:
          | Residual value for overall tracked memory usage across tasks:     0.000000 MB (should be 0.000000 MB)
          | Peak values for overall tracked memory usage:
          |   Minimum:       16.388 MB (on task 11 after allocating zora_vector2)
          |   Maximum:       16.602 MB (on task 17 after allocating zora_vector2)
          |   Average:       16.477 MB
          | Largest tracked array allocation:
          |   Minimum:        2.926 MB (previous_rho_gradient_diff on task 11)
          |   Maximum:        2.990 MB (previous_rho_gradient_diff on task 17)
          |   Average:        2.949 MB
          Note:  These values currently only include a subset of arrays which are explicitly tracked.
          The "true" memory usage will be greater.

          Have a nice day.
------------------------------------------------------------
