------------------------------------------------------------
          Invoking FHI-aims ...

          When using FHI-aims, please cite the following reference:

            Volker Blum, Ralf Gehrke, Felix Hanke, Paula Havu,
            Ville Havu, Xinguo Ren, Karsten Reuter, and Matthias Scheffler,
            'Ab Initio Molecular Simulations with Numeric Atom-Centered Orbitals',
            Computer Physics Communications 180, 2175-2196 (2009)

          In addition, many other developments in FHI-aims are likely important for
          your particular application. If so, please cite them. A partial list of references
          is written at the end of this file. Thank you for giving credit to the authors
          of these developments.

          For general information about FHI-aims please find us at

            https://fhi-aims.org

          Online tutorials can be found at

            https://fhi-aims-club.gitlab.io/tutorials/tutorials-overview/

          For any questions about FHI-aims, please visit our slack channel at

            https://fhi-aims.slack.com

          and our main development and support site at

            https://aims-git.rz-berlin.mpg.de .

          The latter site, in particular, has a wiki to collect information, as well
          as an issue tracker to log discussions, suggest improvements, and report issues
          or bugs. https://aims-git.rz-berlin.mpg.de is also the main development site
          of the project and all new and updated code versions can be obtained there.
          Please send an email to aims-coordinators@fhi-berlin.mpg.de and we will add
          you to these sites. They are for you and everyone is welcome there.

------------------------------------------------------------



  Date     :  20250121, Time     :  091248.389
  Time zero on CPU 1             :   0.643980000000000E+00  s.
  Internal wall clock time zero  :           506682768.389  s.

  FHI-aims created a unique identifier for this run for later identification
  aims_uuid : 841C5E2A-8244-4FFA-AD01-4D81070FFBCB

  Build configuration of the current instance of FHI-aims
  -------------------------------------------------------
  FHI-aims version      : 240605
  Commit number         : b001b2e18
  CMake host system     : Linux-6.5.0-41-generic
  CMake version         : 3.22.1
  Fortran compiler      : /opt/intel/oneapi/mpi/2021.12/bin/mpiifort (IntelLLVM) version 2024.1.0
  Fortran compiler flags: -fc=ifx -O3 -ip -fp-model precise
  C compiler            : /opt/intel/oneapi/mpi/2021.12/bin/mpiicc (IntelLLVM) version 2024.1.0
  C compiler flags      : -cc=icx -O3 -ip -fp-model precise -std=gnu99
  C++ compiler          : /opt/intel/oneapi/mpi/2021.12/bin/mpiicpc (IntelLLVM) version 2024.1.0
  C++ compiler flags    : -cxx=icpx -O3 -ip -fp-model precise -std=c++11
  HIP compiler          :
  HIP compiler flags    :
  HIP GPU arch          :
  Using MPI
  Using ScaLAPACK
  Using LibXC
  Using i-PI
  Using RLSY
  Linking against: /opt/intel/oneapi/mkl/2024.1/lib/intel64/libmkl_intel_lp64.so
                   /opt/intel/oneapi/mkl/2024.1/lib/intel64/libmkl_sequential.so
                   /opt/intel/oneapi/mkl/2024.1/lib/intel64/libmkl_core.so
                   /opt/intel/oneapi/mkl/2024.1/lib/intel64/libmkl_blacs_intelmpi_lp64.so
                   /opt/intel/oneapi/mkl/2024.1/lib/intel64/libmkl_scalapack_lp64.so
                   /opt/intel/oneapi/mkl/2024.1/lib/intel64/libmkl_core.so

  Using       64 parallel tasks.
  Task        0 on host RSL-arvutus reporting.
  Task        1 on host RSL-arvutus reporting.
  Task        2 on host RSL-arvutus reporting.
  Task        3 on host RSL-arvutus reporting.
  Task        4 on host RSL-arvutus reporting.
  Task        5 on host RSL-arvutus reporting.
  Task        6 on host RSL-arvutus reporting.
  Task        7 on host RSL-arvutus reporting.
  Task        8 on host RSL-arvutus reporting.
  Task        9 on host RSL-arvutus reporting.
  Task       10 on host RSL-arvutus reporting.
  Task       11 on host RSL-arvutus reporting.
  Task       12 on host RSL-arvutus reporting.
  Task       13 on host RSL-arvutus reporting.
  Task       14 on host RSL-arvutus reporting.
  Task       15 on host RSL-arvutus reporting.
  Task       16 on host RSL-arvutus reporting.
  Task       17 on host RSL-arvutus reporting.
  Task       18 on host RSL-arvutus reporting.
  Task       19 on host RSL-arvutus reporting.
  Task       20 on host RSL-arvutus reporting.
  Task       21 on host RSL-arvutus reporting.
  Task       22 on host RSL-arvutus reporting.
  Task       23 on host RSL-arvutus reporting.
  Task       24 on host RSL-arvutus reporting.
  Task       25 on host RSL-arvutus reporting.
  Task       26 on host RSL-arvutus reporting.
  Task       27 on host RSL-arvutus reporting.
  Task       28 on host RSL-arvutus reporting.
  Task       29 on host RSL-arvutus reporting.
  Task       30 on host RSL-arvutus reporting.
  Task       31 on host RSL-arvutus reporting.
  Task       32 on host RSL-arvutus reporting.
  Task       33 on host RSL-arvutus reporting.
  Task       34 on host RSL-arvutus reporting.
  Task       35 on host RSL-arvutus reporting.
  Task       36 on host RSL-arvutus reporting.
  Task       37 on host RSL-arvutus reporting.
  Task       38 on host RSL-arvutus reporting.
  Task       39 on host RSL-arvutus reporting.
  Task       40 on host RSL-arvutus reporting.
  Task       41 on host RSL-arvutus reporting.
  Task       42 on host RSL-arvutus reporting.
  Task       43 on host RSL-arvutus reporting.
  Task       44 on host RSL-arvutus reporting.
  Task       45 on host RSL-arvutus reporting.
  Task       46 on host RSL-arvutus reporting.
  Task       47 on host RSL-arvutus reporting.
  Task       48 on host RSL-arvutus reporting.
  Task       49 on host RSL-arvutus reporting.
  Task       50 on host RSL-arvutus reporting.
  Task       51 on host RSL-arvutus reporting.
  Task       52 on host RSL-arvutus reporting.
  Task       53 on host RSL-arvutus reporting.
  Task       54 on host RSL-arvutus reporting.
  Task       55 on host RSL-arvutus reporting.
  Task       56 on host RSL-arvutus reporting.
  Task       57 on host RSL-arvutus reporting.
  Task       58 on host RSL-arvutus reporting.
  Task       59 on host RSL-arvutus reporting.
  Task       60 on host RSL-arvutus reporting.
  Task       61 on host RSL-arvutus reporting.
  Task       62 on host RSL-arvutus reporting.
  Task       63 on host RSL-arvutus reporting.

  Memory overcommitment is allowed on your operating system.

  Obtaining array dimensions for all initial allocations:
  
  -----------------------------------------------------------------------
  Parsing control.in (first pass over file, find array dimensions only).
  The contents of control.in will be repeated verbatim below
  unless switched off by setting 'verbatim_writeout .false.' .
  in the first line of control.in .
  -----------------------------------------------------------------------
  
    xc              pbe
    relativistic    zora scalar 1.0e-12
    k_grid          2 4 1
  
    output          Mulliken
  
  
  ################################################################################
  #
  #  FHI-aims code project
  #  VB, Fritz-Haber Institut, 2009
  #
  #  Suggested "light" defaults for Ti atom (to be pasted into control.in file)
  #  Be sure to double-check any results obtained with these settings for post-processing,
  #  e.g., with the "tight" defaults and larger basis sets.
  #
  ################################################################################
    species        Ti
  #     global species definitions
      nucleus             22
      mass                47.867
  #
      l_hartree           4
  #
      cut_pot             3.5          1.5  1.0
      basis_dep_cutoff    1e-4
  #
      radial_base         48 5.0
      radial_multiplier   1
      angular_grids       specified
        division   0.5171   50
        division   0.9824  110
        division   1.2917  194
        division   1.4940  302
  #      division   1.6934  434
  #      division   1.8425  590
  #      division   2.1901  770
  #      division   2.2896  974
  #      division   2.8244 1202
  #      outer_grid  974
        outer_grid  302
  ################################################################################
  #
  #  Definition of "minimal" basis
  #
  ################################################################################
  #     valence basis states
      valence      4  s   2.
      valence      3  p   6.
      valence      3  d   2.
  #     ion occupancy
      ion_occ      4  s   1.
      ion_occ      3  p   6.
      ion_occ      3  d   1.
  ################################################################################
  #
  #  Suggested additional basis functions. For production calculations,
  #  uncomment them one after another (the most important basis functions are
  #  listed first).
  #
  #  Constructed for dimers: 1.6 A, 1.85 A, 2.5 A, 3.25 A, 4.25 A
  #
  ################################################################################
  #  "First tier" - improvements: -396.25 meV to -19.41 meV
       hydro 4 f 8
       hydro 3 d 2.7
       ionic 4 p auto
  #     hydro 5 g 11.6
       ionic 4 s auto
  #  "Second tier" - improvements: -16.30 meV to -2.03 meV
  #     hydro 3 d 4.4
  #     hydro 6 h 16
  #     hydro 4 f 9.4
  #     hydro 4 p 4.5
  #     hydro 1 s 0.5
  #  "Third tier" - improvements: -6.28 meV to -0.37 meV
  #     hydro 4 d 6.4
  #     hydro 4 f 10
  #     hydro 5 g 12
  #     hydro 2 p 1.7
  #     hydro 6 h 16.4
  #     hydro 4 s 3.8
  #  Further basis functions: -0.45 meV and smaller improvements
  #     hydro 3 d 8.8
  #     hydro 5 p 18
  #     hydro 4 f 22.4
  #     hydro 5 f 7.2  # -0.16 meV
  #     hydro 3 d 2.1  # -0.11 meV
  #     hydro 5 g 7.4  # -0.09 meV
  
  
  ################################################################################
  #
  #  FHI-aims code project
  #  VB, Fritz-Haber Institut, 2009
  #
  #  Suggested "light" defaults for O atom (to be pasted into control.in file)
  #  Be sure to double-check any results obtained with these settings for post-processing,
  #  e.g., with the "tight" defaults and larger basis sets.
  #
  ################################################################################
    species        O
  #     global species definitions
      nucleus             8
      mass                15.9994
  #
      l_hartree           4
  #
      cut_pot             3.5  1.5  1.0
      basis_dep_cutoff    1e-4
  #
      radial_base         36 5.0
      radial_multiplier   1
       angular_grids specified
        division   0.2659   50
        division   0.4451  110
        division   0.6052  194
        division   0.7543  302
  #      division   0.8014  434
  #      division   0.8507  590
  #      division   0.8762  770
  #      division   0.9023  974
  #      division   1.2339 1202
  #      outer_grid 974
        outer_grid 302
  ################################################################################
  #
  #  Definition of "minimal" basis
  #
  ################################################################################
  #     valence basis states
      valence      2  s   2.
      valence      2  p   4.
  #     ion occupancy
      ion_occ      2  s   1.
      ion_occ      2  p   3.
  ################################################################################
  #
  #  Suggested additional basis functions. For production calculations,
  #  uncomment them one after another (the most important basis functions are
  #  listed first).
  #
  #  Constructed for dimers: 1.0 A, 1.208 A, 1.5 A, 2.0 A, 3.0 A
  #
  ################################################################################
  #  "First tier" - improvements: -699.05 meV to -159.38 meV
       hydro 2 p 1.8
       hydro 3 d 7.6
       hydro 3 s 6.4
  #  "Second tier" - improvements: -49.91 meV to -5.39 meV
  #     hydro 4 f 11.6
  #     hydro 3 p 6.2
  #     hydro 3 d 5.6
  #     hydro 5 g 17.6
  #     hydro 1 s 0.75
  #  "Third tier" - improvements: -2.83 meV to -0.50 meV
  #     ionic 2 p auto
  #     hydro 4 f 10.8
  #     hydro 4 d 4.7
  #     hydro 2 s 6.8
  #  "Fourth tier" - improvements: -0.40 meV to -0.12 meV
  #     hydro 3 p 5
  #     hydro 3 s 3.3
  #     hydro 5 g 15.6
  #     hydro 4 f 17.6
  #     hydro 4 d 14
  # Further basis functions - -0.08 meV and below
  #     hydro 3 s 2.1
  #     hydro 4 d 11.6
  #     hydro 3 p 16
  #     hydro 2 s 17.2
  
  ################################################################################
  #
  #  "Core" basis functions and numerical settings for O atom.
  #  Based on “tight” defaults (V. Blum, 2009).
  #
  ################################################################################
    species        O1
  #     global species definitions
      nucleus             8.
      mass                15.9994
  #
      l_hartree           6
  #
      cut_pot             4.0  2.0  1.0
      basis_dep_cutoff    1e-4
  #
      radial_base         36 7.0
      radial_multiplier   2
       angular_grids specified
        division   0.1817   50
        division   0.3417  110
        division   0.4949  194
        division   0.6251  302
        division   0.8014  434
  #      division   0.8507  590
  #      division   0.8762  770
  #      division   0.9023  974
  #      division   1.2339 1202
  #      outer_grid 974
        outer_grid  434
  ################################################################################
  #
  #  Definition of "minimal" basis
  #
  ################################################################################
  #     valence basis states
      valence      2  s   2.
      valence      2  p   4.
  #     ion occupancy
      ion_occ      2  s   1.
      ion_occ      2  p   3.
  ################################################################################
  #
  #  Suggested additional basis functions. For production calculations,
  #  uncomment them one after another (the most important basis functions are
  #  listed first).
  #
  #  Constructed for dimers: 1.0 A, 1.208 A, 1.5 A, 2.0 A, 3.0 A
  #
  ################################################################################
  #  "First tier" - improvements: -699.05 meV to -159.38 meV
       hydro 2 p 1.8
       hydro 3 d 7.6
       hydro 3 s 6.4
  #  "Second tier" - improvements: -49.91 meV to -5.39 meV
       hydro 4 f 11.6
       hydro 3 p 6.2
       hydro 3 d 5.6
       hydro 5 g 17.6
       hydro 1 s 0.75
  #  "Third tier" - improvements: -2.83 meV to -0.50 meV
       ionic 2 p auto
       hydro 4 f 10.8
       hydro 4 d 4.7
       hydro 2 s 6.8
  #  "Fourth tier" - improvements: -0.40 meV to -0.12 meV
  #     hydro 3 p 5
  #     hydro 3 s 3.3
  #     hydro 5 g 15.6
  #     hydro 4 f 17.6
  #     hydro 4 d 14
  # Further basis functions - -0.08 meV and below
  #     hydro 3 s 2.1
  #     hydro 4 d 11.6
  #     hydro 3 p 16
  #     hydro 2 s 17.2
  
  # Additional basis functions for atom with a core hole
       hydro 1 s 12.0
       hydro 1 s 10.0
       hydro 1 s 6.0
       hydro 2 s 10.0
       hydro 2 p 8.0
       hydro 2 p 6.0
       hydro 3 d 8.0
  
  -----------------------------------------------------------------------
  Completed first pass over input file control.in .
  -----------------------------------------------------------------------
  
  
  -----------------------------------------------------------------------
  Parsing geometry.in (first pass over file, find array dimensions only).
  The contents of geometry.in will be repeated verbatim below
  unless switched off by setting 'verbatim_writeout .false.' .
  in the first line of geometry.in .
  -----------------------------------------------------------------------
  
  lattice_vector 26.264506 0.000000 0.000000
  lattice_vector 0.000000 11.891531 0.000000
  lattice_vector 0.000000 0.000000 87.542649
  
  atom_frac 0.249998 0.000000 0.365610 O
  atom_frac 0.076389 0.125000 0.380194 O
  atom_frac 0.124999 0.000000 0.380195 Ti
  atom_frac 0.249999 0.125000 0.380195 Ti
  atom_frac 0.173610 0.125000 0.380195 O
  atom_frac 0.000000 0.000000 0.394779 O
  atom_frac 0.124998 0.000000 0.403114 O
  atom_frac 0.201388 0.125000 0.417699 O
  atom_frac 0.249999 0.000000 0.417699 Ti
  atom_frac 0.124999 0.125000 0.417699 Ti
  atom_frac 0.048609 0.125000 0.417699 O
  atom_frac 0.125000 0.000000 0.432283 O
  atom_frac 0.249997 0.000000 0.440619 O
  atom_frac 0.076388 0.125000 0.455203 O
  atom_frac 0.124998 0.000000 0.455203 Ti
  atom_frac 0.249998 0.125000 0.455203 Ti
  atom_frac 0.173608 0.125000 0.455204 O
  atom_frac 0.249999 0.000000 0.469788 O
  atom_frac 0.124996 0.000000 0.478123 O
  atom_frac 0.201387 0.125000 0.492707 O
  atom_frac 0.249997 0.000000 0.492708 Ti
  atom_frac 0.124997 0.125000 0.492708 Ti
  atom_frac 0.048608 0.125000 0.492708 O
  atom_frac 0.124998 0.000000 0.507292 O
  atom_frac 0.249996 0.000000 0.515628 O
  atom_frac 0.076386 0.125000 0.530212 O
  atom_frac 0.124997 0.000000 0.530212 Ti
  atom_frac 0.249997 0.125000 0.530212 Ti
  atom_frac 0.173607 0.125000 0.530212 O
  atom_frac 0.249998 0.000000 0.544797 O
  atom_frac 0.124995 0.000000 0.553132 O
  atom_frac 0.201386 0.125000 0.567716 O
  atom_frac 0.249996 0.000000 0.567717 Ti
  atom_frac 0.124996 0.125000 0.567717 Ti
  atom_frac 0.048606 0.125000 0.567717 O
  atom_frac 0.124997 0.000000 0.582301 O
  atom_frac 0.249994 0.000000 0.590636 O
  atom_frac 0.076385 0.125000 0.605221 O
  atom_frac 0.124995 0.000000 0.605221 Ti
  atom_frac 0.249995 0.125000 0.605221 Ti
  atom_frac 0.173606 0.125000 0.605221 O
  atom_frac 0.249996 0.000000 0.619805 O
  atom_frac 0.124994 0.000000 0.628141 O
  atom_frac 0.201384 0.125000 0.642725 O
  atom_frac 0.249995 0.000000 0.642725 Ti
  atom_frac 0.124995 0.125000 0.642725 Ti
  atom_frac 0.048605 0.125000 0.642726 O
  atom_frac 0.124995 0.000000 0.657310 O
  atom_frac 0.249998 0.250000 0.365610 O
  atom_frac 0.076389 0.375000 0.380194 O
  atom_frac 0.124999 0.250000 0.380195 Ti
  atom_frac 0.249999 0.375000 0.380195 Ti
  atom_frac 0.173610 0.375000 0.380195 O
  atom_frac 0.000000 0.250000 0.394779 O
  atom_frac 0.124998 0.250000 0.403114 O
  atom_frac 0.201388 0.375000 0.417699 O
  atom_frac 0.249999 0.250000 0.417699 Ti
  atom_frac 0.124999 0.375000 0.417699 Ti
  atom_frac 0.048609 0.375000 0.417699 O
  atom_frac 0.125000 0.250000 0.432283 O
  atom_frac 0.249997 0.250000 0.440619 O
  atom_frac 0.076388 0.375000 0.455203 O
  atom_frac 0.124998 0.250000 0.455203 Ti
  atom_frac 0.249998 0.375000 0.455203 Ti
  atom_frac 0.173608 0.375000 0.455204 O
  atom_frac 0.249999 0.250000 0.469788 O
  atom_frac 0.124996 0.250000 0.478123 O
  atom_frac 0.201387 0.375000 0.492707 O
  atom_frac 0.249997 0.250000 0.492708 Ti
  atom_frac 0.124997 0.375000 0.492708 Ti
  atom_frac 0.048608 0.375000 0.492708 O
  atom_frac 0.124998 0.250000 0.507292 O
  atom_frac 0.249996 0.250000 0.515628 O
  atom_frac 0.076386 0.375000 0.530212 O
  atom_frac 0.124997 0.250000 0.530212 Ti
  atom_frac 0.249997 0.375000 0.530212 Ti
  atom_frac 0.173607 0.375000 0.530212 O
  atom_frac 0.249998 0.250000 0.544797 O
  atom_frac 0.124995 0.250000 0.553132 O
  atom_frac 0.201386 0.375000 0.567716 O
  atom_frac 0.249996 0.250000 0.567717 Ti
  atom_frac 0.124996 0.375000 0.567717 Ti
  atom_frac 0.048606 0.375000 0.567717 O
  atom_frac 0.124997 0.250000 0.582301 O
  atom_frac 0.249994 0.250000 0.590636 O
  atom_frac 0.076385 0.375000 0.605221 O
  atom_frac 0.124995 0.250000 0.605221 Ti
  atom_frac 0.249995 0.375000 0.605221 Ti
  atom_frac 0.173606 0.375000 0.605221 O
  atom_frac 0.249996 0.250000 0.619805 O
  atom_frac 0.124994 0.250000 0.628141 O
  atom_frac 0.201384 0.375000 0.642725 O
  atom_frac 0.249995 0.250000 0.642725 Ti
  atom_frac 0.124995 0.375000 0.642725 Ti
  atom_frac 0.048605 0.375000 0.642726 O
  atom_frac 0.124995 0.250000 0.657310 O
  atom_frac 0.249998 0.500000 0.365610 O
  atom_frac 0.076389 0.625000 0.380194 O
  atom_frac 0.124999 0.500000 0.380195 Ti
  atom_frac 0.249999 0.625000 0.380195 Ti
  atom_frac 0.173610 0.625000 0.380195 O
  atom_frac 0.000000 0.500000 0.394779 O
  atom_frac 0.124998 0.500000 0.403114 O
  atom_frac 0.201388 0.625000 0.417699 O
  atom_frac 0.249999 0.500000 0.417699 Ti
  atom_frac 0.124999 0.625000 0.417699 Ti
  atom_frac 0.048609 0.625000 0.417699 O
  atom_frac 0.125000 0.500000 0.432283 O
  atom_frac 0.249997 0.500000 0.440619 O
  atom_frac 0.076388 0.625000 0.455203 O
  atom_frac 0.124998 0.500000 0.455203 Ti
  atom_frac 0.249998 0.625000 0.455203 Ti
  atom_frac 0.173608 0.625000 0.455204 O
  atom_frac 0.249999 0.500000 0.469788 O
  atom_frac 0.124996 0.500000 0.478123 O
  atom_frac 0.201387 0.625000 0.492707 O
  atom_frac 0.249997 0.500000 0.492708 Ti
  atom_frac 0.124997 0.625000 0.492708 Ti
  atom_frac 0.048608 0.625000 0.492708 O
  atom_frac 0.124998 0.500000 0.507292 O
  atom_frac 0.249996 0.500000 0.515628 O
  atom_frac 0.076386 0.625000 0.530212 O
  atom_frac 0.124997 0.500000 0.530212 Ti
  atom_frac 0.249997 0.625000 0.530212 Ti
  atom_frac 0.173607 0.625000 0.530212 O
  atom_frac 0.249998 0.500000 0.544797 O
  atom_frac 0.124995 0.500000 0.553132 O
  atom_frac 0.201386 0.625000 0.567716 O
  atom_frac 0.249996 0.500000 0.567717 Ti
  atom_frac 0.124996 0.625000 0.567717 Ti
  atom_frac 0.048606 0.625000 0.567717 O
  atom_frac 0.124997 0.500000 0.582301 O
  atom_frac 0.249994 0.500000 0.590636 O
  atom_frac 0.076385 0.625000 0.605221 O
  atom_frac 0.124995 0.500000 0.605221 Ti
  atom_frac 0.249995 0.625000 0.605221 Ti
  atom_frac 0.173606 0.625000 0.605221 O
  atom_frac 0.249996 0.500000 0.619805 O
  atom_frac 0.124994 0.500000 0.628141 O
  atom_frac 0.201384 0.625000 0.642725 O
  atom_frac 0.249995 0.500000 0.642725 Ti
  atom_frac 0.124995 0.625000 0.642725 Ti
  atom_frac 0.048605 0.625000 0.642726 O
  atom_frac 0.124995 0.500000 0.657310 O
  atom_frac 0.249998 0.750000 0.365610 O
  atom_frac 0.076389 0.875000 0.380194 O
  atom_frac 0.124999 0.750000 0.380195 Ti
  atom_frac 0.249999 0.875000 0.380195 Ti
  atom_frac 0.173610 0.875000 0.380195 O
  atom_frac 0.000000 0.750000 0.394779 O
  atom_frac 0.124998 0.750000 0.403114 O
  atom_frac 0.201388 0.875000 0.417699 O
  atom_frac 0.249999 0.750000 0.417699 Ti
  atom_frac 0.124999 0.875000 0.417699 Ti
  atom_frac 0.048609 0.875000 0.417699 O
  atom_frac 0.125000 0.750000 0.432283 O
  atom_frac 0.249997 0.750000 0.440619 O
  atom_frac 0.076388 0.875000 0.455203 O
  atom_frac 0.124998 0.750000 0.455203 Ti
  atom_frac 0.249998 0.875000 0.455203 Ti
  atom_frac 0.173608 0.875000 0.455204 O
  atom_frac 0.249999 0.750000 0.469788 O
  atom_frac 0.124996 0.750000 0.478123 O
  atom_frac 0.201387 0.875000 0.492707 O
  atom_frac 0.249997 0.750000 0.492708 Ti
  atom_frac 0.124997 0.875000 0.492708 Ti
  atom_frac 0.048608 0.875000 0.492708 O
  atom_frac 0.124998 0.750000 0.507292 O
  atom_frac 0.249996 0.750000 0.515628 O
  atom_frac 0.076386 0.875000 0.530212 O
  atom_frac 0.124997 0.750000 0.530212 Ti
  atom_frac 0.249997 0.875000 0.530212 Ti
  atom_frac 0.173607 0.875000 0.530212 O
  atom_frac 0.249998 0.750000 0.544797 O
  atom_frac 0.124995 0.750000 0.553132 O
  atom_frac 0.201386 0.875000 0.567716 O
  atom_frac 0.249996 0.750000 0.567717 Ti
  atom_frac 0.124996 0.875000 0.567717 Ti
  atom_frac 0.048606 0.875000 0.567717 O
  atom_frac 0.124997 0.750000 0.582301 O
  atom_frac 0.249994 0.750000 0.590636 O
  atom_frac 0.076385 0.875000 0.605221 O
  atom_frac 0.124995 0.750000 0.605221 Ti
  atom_frac 0.249995 0.875000 0.605221 Ti
  atom_frac 0.173606 0.875000 0.605221 O
  atom_frac 0.249996 0.750000 0.619805 O
  atom_frac 0.124994 0.750000 0.628141 O
  atom_frac 0.201384 0.875000 0.642725 O
  atom_frac 0.249995 0.750000 0.642725 Ti
  atom_frac 0.124995 0.875000 0.642725 Ti
  atom_frac 0.048605 0.875000 0.642726 O
  atom_frac 0.124995 0.750000 0.657310 O
  atom_frac 0.499998 0.000000 0.365610 O
  atom_frac 0.326389 0.125000 0.380194 O
  atom_frac 0.374999 0.000000 0.380195 Ti
  atom_frac 0.499999 0.125000 0.380195 Ti
  atom_frac 0.423610 0.125000 0.380195 O
  atom_frac 0.250000 0.000000 0.394779 O
  atom_frac 0.374998 0.000000 0.403114 O
  atom_frac 0.451388 0.125000 0.417699 O
  atom_frac 0.499999 0.000000 0.417699 Ti
  atom_frac 0.374999 0.125000 0.417699 Ti
  atom_frac 0.298609 0.125000 0.417699 O
  atom_frac 0.375000 0.000000 0.432283 O
  atom_frac 0.499997 0.000000 0.440619 O
  atom_frac 0.326388 0.125000 0.455203 O
  atom_frac 0.374998 0.000000 0.455203 Ti
  atom_frac 0.499998 0.125000 0.455203 Ti
  atom_frac 0.423608 0.125000 0.455204 O
  atom_frac 0.499999 0.000000 0.469788 O
  atom_frac 0.374996 0.000000 0.478123 O
  atom_frac 0.451387 0.125000 0.492707 O
  atom_frac 0.499997 0.000000 0.492708 Ti
  atom_frac 0.374997 0.125000 0.492708 Ti
  atom_frac 0.298608 0.125000 0.492708 O
  atom_frac 0.374998 0.000000 0.507292 O
  atom_frac 0.499996 0.000000 0.515628 O
  atom_frac 0.326386 0.125000 0.530212 O
  atom_frac 0.374997 0.000000 0.530212 Ti
  atom_frac 0.499997 0.125000 0.530212 Ti
  atom_frac 0.423607 0.125000 0.530212 O
  atom_frac 0.499998 0.000000 0.544797 O
  atom_frac 0.374995 0.000000 0.553132 O
  atom_frac 0.451386 0.125000 0.567716 O
  atom_frac 0.499996 0.000000 0.567717 Ti
  atom_frac 0.374996 0.125000 0.567717 Ti
  atom_frac 0.298606 0.125000 0.567717 O
  atom_frac 0.374997 0.000000 0.582301 O
  atom_frac 0.499994 0.000000 0.590636 O
  atom_frac 0.326385 0.125000 0.605221 O
  atom_frac 0.374995 0.000000 0.605221 Ti
  atom_frac 0.499995 0.125000 0.605221 Ti
  atom_frac 0.423606 0.125000 0.605221 O
  atom_frac 0.499996 0.000000 0.619805 O
  atom_frac 0.374994 0.000000 0.628141 O
  atom_frac 0.451384 0.125000 0.642725 O
  atom_frac 0.499995 0.000000 0.642725 Ti
  atom_frac 0.374995 0.125000 0.642725 Ti
  atom_frac 0.298605 0.125000 0.642726 O
  atom_frac 0.374995 0.000000 0.657310 O
  atom_frac 0.499998 0.250000 0.365610 O
  atom_frac 0.326389 0.375000 0.380194 O
  atom_frac 0.374999 0.250000 0.380195 Ti
  atom_frac 0.499999 0.375000 0.380195 Ti
  atom_frac 0.423610 0.375000 0.380195 O
  atom_frac 0.250000 0.250000 0.394779 O
  atom_frac 0.374998 0.250000 0.403114 O
  atom_frac 0.451388 0.375000 0.417699 O
  atom_frac 0.499999 0.250000 0.417699 Ti
  atom_frac 0.374999 0.375000 0.417699 Ti
  atom_frac 0.298609 0.375000 0.417699 O
  atom_frac 0.375000 0.250000 0.432283 O
  atom_frac 0.499997 0.250000 0.440619 O
  atom_frac 0.326388 0.375000 0.455203 O
  atom_frac 0.374998 0.250000 0.455203 Ti
  atom_frac 0.499998 0.375000 0.455203 Ti
  atom_frac 0.423608 0.375000 0.455204 O
  atom_frac 0.499999 0.250000 0.469788 O
  atom_frac 0.374996 0.250000 0.478123 O
  atom_frac 0.451387 0.375000 0.492707 O
  atom_frac 0.499997 0.250000 0.492708 Ti
  atom_frac 0.374997 0.375000 0.492708 Ti
  atom_frac 0.298608 0.375000 0.492708 O
  atom_frac 0.374998 0.250000 0.507292 O
  atom_frac 0.499996 0.250000 0.515628 O
  atom_frac 0.326386 0.375000 0.530212 O
  atom_frac 0.374997 0.250000 0.530212 Ti
  atom_frac 0.499997 0.375000 0.530212 Ti
  atom_frac 0.423607 0.375000 0.530212 O
  atom_frac 0.499998 0.250000 0.544797 O
  atom_frac 0.374995 0.250000 0.553132 O
  atom_frac 0.451386 0.375000 0.567716 O
  atom_frac 0.499996 0.250000 0.567717 Ti
  atom_frac 0.374996 0.375000 0.567717 Ti
  atom_frac 0.298606 0.375000 0.567717 O
  atom_frac 0.374997 0.250000 0.582301 O
  atom_frac 0.499994 0.250000 0.590636 O
  atom_frac 0.326385 0.375000 0.605221 O
  atom_frac 0.374995 0.250000 0.605221 Ti
  atom_frac 0.499995 0.375000 0.605221 Ti
  atom_frac 0.423606 0.375000 0.605221 O
  atom_frac 0.499996 0.250000 0.619805 O
  atom_frac 0.374994 0.250000 0.628141 O
  atom_frac 0.451384 0.375000 0.642725 O
  atom_frac 0.499995 0.250000 0.642725 Ti
  atom_frac 0.374995 0.375000 0.642725 Ti
  atom_frac 0.298605 0.375000 0.642726 O
  atom_frac 0.374995 0.250000 0.657310 O
  atom_frac 0.499998 0.500000 0.365610 O
  atom_frac 0.326389 0.625000 0.380194 O
  atom_frac 0.374999 0.500000 0.380195 Ti
  atom_frac 0.499999 0.625000 0.380195 Ti
  atom_frac 0.423610 0.625000 0.380195 O
  atom_frac 0.250000 0.500000 0.394779 O
  atom_frac 0.374998 0.500000 0.403114 O
  atom_frac 0.451388 0.625000 0.417699 O
  atom_frac 0.499999 0.500000 0.417699 Ti
  atom_frac 0.374999 0.625000 0.417699 Ti
  atom_frac 0.298609 0.625000 0.417699 O
  atom_frac 0.375000 0.500000 0.432283 O
  atom_frac 0.499997 0.500000 0.440619 O
  atom_frac 0.326388 0.625000 0.455203 O
  atom_frac 0.374998 0.500000 0.455203 Ti
  atom_frac 0.499998 0.625000 0.455203 Ti
  atom_frac 0.423608 0.625000 0.455204 O
  atom_frac 0.499999 0.500000 0.469788 O
  atom_frac 0.374996 0.500000 0.478123 O
  atom_frac 0.451387 0.625000 0.492707 O
  atom_frac 0.499997 0.500000 0.492708 Ti
  atom_frac 0.374997 0.625000 0.492708 Ti
  atom_frac 0.298608 0.625000 0.492708 O
  atom_frac 0.374998 0.500000 0.507292 O
  atom_frac 0.499996 0.500000 0.515628 O
  atom_frac 0.326386 0.625000 0.530212 O
  atom_frac 0.374997 0.500000 0.530212 Ti
  atom_frac 0.499997 0.625000 0.530212 Ti
  atom_frac 0.423607 0.625000 0.530212 O
  atom_frac 0.499998 0.500000 0.544797 O
  atom_frac 0.374995 0.500000 0.553132 O
  atom_frac 0.451386 0.625000 0.567716 O
  atom_frac 0.499996 0.500000 0.567717 Ti
  atom_frac 0.374996 0.625000 0.567717 Ti
  atom_frac 0.298606 0.625000 0.567717 O
  atom_frac 0.374997 0.500000 0.582301 O
  atom_frac 0.499994 0.500000 0.590636 O
  atom_frac 0.326385 0.625000 0.605221 O
  atom_frac 0.374995 0.500000 0.605221 Ti
  atom_frac 0.499995 0.625000 0.605221 Ti
  atom_frac 0.423606 0.625000 0.605221 O
  atom_frac 0.499996 0.500000 0.619805 O
  atom_frac 0.374994 0.500000 0.628141 O
  atom_frac 0.451384 0.625000 0.642725 O
  atom_frac 0.499995 0.500000 0.642725 Ti
  atom_frac 0.374995 0.625000 0.642725 Ti
  atom_frac 0.298605 0.625000 0.642726 O
  atom_frac 0.374995 0.500000 0.657310 O
  atom_frac 0.499998 0.750000 0.365610 O
  atom_frac 0.326389 0.875000 0.380194 O
  atom_frac 0.374999 0.750000 0.380195 Ti
  atom_frac 0.499999 0.875000 0.380195 Ti
  atom_frac 0.423610 0.875000 0.380195 O
  atom_frac 0.250000 0.750000 0.394779 O
  atom_frac 0.374998 0.750000 0.403114 O
  atom_frac 0.451388 0.875000 0.417699 O
  atom_frac 0.499999 0.750000 0.417699 Ti
  atom_frac 0.374999 0.875000 0.417699 Ti
  atom_frac 0.298609 0.875000 0.417699 O
  atom_frac 0.375000 0.750000 0.432283 O
  atom_frac 0.499997 0.750000 0.440619 O
  atom_frac 0.326388 0.875000 0.455203 O
  atom_frac 0.374998 0.750000 0.455203 Ti
  atom_frac 0.499998 0.875000 0.455203 Ti
  atom_frac 0.423608 0.875000 0.455204 O
  atom_frac 0.499999 0.750000 0.469788 O
  atom_frac 0.374996 0.750000 0.478123 O
  atom_frac 0.451387 0.875000 0.492707 O
  atom_frac 0.499997 0.750000 0.492708 Ti
  atom_frac 0.374997 0.875000 0.492708 Ti
  atom_frac 0.298608 0.875000 0.492708 O
  atom_frac 0.374998 0.750000 0.507292 O
  atom_frac 0.499996 0.750000 0.515628 O
  atom_frac 0.326386 0.875000 0.530212 O
  atom_frac 0.374997 0.750000 0.530212 Ti
  atom_frac 0.499997 0.875000 0.530212 Ti
  atom_frac 0.423607 0.875000 0.530212 O
  atom_frac 0.499998 0.750000 0.544797 O
  atom_frac 0.374995 0.750000 0.553132 O
  atom_frac 0.451386 0.875000 0.567716 O
  atom_frac 0.499996 0.750000 0.567717 Ti
  atom_frac 0.374996 0.875000 0.567717 Ti
  atom_frac 0.298606 0.875000 0.567717 O
  atom_frac 0.374997 0.750000 0.582301 O
  atom_frac 0.499994 0.750000 0.590636 O
  atom_frac 0.326385 0.875000 0.605221 O
  atom_frac 0.374995 0.750000 0.605221 Ti
  atom_frac 0.499995 0.875000 0.605221 Ti
  atom_frac 0.423606 0.875000 0.605221 O
  atom_frac 0.499996 0.750000 0.619805 O
  atom_frac 0.374994 0.750000 0.628141 O
  atom_frac 0.451384 0.875000 0.642725 O
  atom_frac 0.499995 0.750000 0.642725 Ti
  atom_frac 0.374995 0.875000 0.642725 Ti
  atom_frac 0.298605 0.875000 0.642726 O
  atom_frac 0.374995 0.750000 0.657310 O
  atom_frac 0.749998 0.000000 0.365610 O
  atom_frac 0.576389 0.125000 0.380194 O
  atom_frac 0.624999 0.000000 0.380195 Ti
  atom_frac 0.749999 0.125000 0.380195 Ti
  atom_frac 0.673610 0.125000 0.380195 O
  atom_frac 0.500000 0.000000 0.394779 O
  atom_frac 0.624998 0.000000 0.403114 O
  atom_frac 0.701388 0.125000 0.417699 O
  atom_frac 0.749999 0.000000 0.417699 Ti
  atom_frac 0.624999 0.125000 0.417699 Ti
  atom_frac 0.548609 0.125000 0.417699 O
  atom_frac 0.625000 0.000000 0.432283 O
  atom_frac 0.749997 0.000000 0.440619 O
  atom_frac 0.576388 0.125000 0.455203 O
  atom_frac 0.624998 0.000000 0.455203 Ti
  atom_frac 0.749998 0.125000 0.455203 Ti
  atom_frac 0.673608 0.125000 0.455204 O
  atom_frac 0.749999 0.000000 0.469788 O
  atom_frac 0.624996 0.000000 0.478123 O
  atom_frac 0.701387 0.125000 0.492707 O
  atom_frac 0.749997 0.000000 0.492708 Ti
  atom_frac 0.624997 0.125000 0.492708 Ti
  atom_frac 0.548608 0.125000 0.492708 O
  atom_frac 0.624998 0.000000 0.507292 O
  atom_frac 0.749996 0.000000 0.515628 O
  atom_frac 0.576386 0.125000 0.530212 O
  atom_frac 0.624997 0.000000 0.530212 Ti
  atom_frac 0.749997 0.125000 0.530212 Ti
  atom_frac 0.673607 0.125000 0.530212 O
  atom_frac 0.749998 0.000000 0.544797 O
  atom_frac 0.624995 0.000000 0.553132 O
  atom_frac 0.701386 0.125000 0.567716 O
  atom_frac 0.749996 0.000000 0.567717 Ti
  atom_frac 0.624996 0.125000 0.567717 Ti
  atom_frac 0.548606 0.125000 0.567717 O
  atom_frac 0.624997 0.000000 0.582301 O
  atom_frac 0.749994 0.000000 0.590636 O
  atom_frac 0.576385 0.125000 0.605221 O
  atom_frac 0.624995 0.000000 0.605221 Ti
  atom_frac 0.749995 0.125000 0.605221 Ti
  atom_frac 0.673606 0.125000 0.605221 O
  atom_frac 0.749996 0.000000 0.619805 O
  atom_frac 0.624994 0.000000 0.628141 O
  atom_frac 0.701384 0.125000 0.642725 O
  atom_frac 0.749995 0.000000 0.642725 Ti
  atom_frac 0.624995 0.125000 0.642725 Ti
  atom_frac 0.548605 0.125000 0.642726 O
  atom_frac 0.624995 0.000000 0.657310 O
  atom_frac 0.749998 0.250000 0.365610 O
  atom_frac 0.576389 0.375000 0.380194 O
  atom_frac 0.624999 0.250000 0.380195 Ti
  atom_frac 0.749999 0.375000 0.380195 Ti
  atom_frac 0.673610 0.375000 0.380195 O
  atom_frac 0.500000 0.250000 0.394779 O
  atom_frac 0.624998 0.250000 0.403114 O
  atom_frac 0.701388 0.375000 0.417699 O
  atom_frac 0.749999 0.250000 0.417699 Ti
  atom_frac 0.624999 0.375000 0.417699 Ti
  atom_frac 0.548609 0.375000 0.417699 O
  atom_frac 0.625000 0.250000 0.432283 O
  atom_frac 0.749997 0.250000 0.440619 O
  atom_frac 0.576388 0.375000 0.455203 O
  atom_frac 0.624998 0.250000 0.455203 Ti
  atom_frac 0.749998 0.375000 0.455203 Ti
  atom_frac 0.673608 0.375000 0.455204 O
  atom_frac 0.749999 0.250000 0.469788 O
  atom_frac 0.624996 0.250000 0.478123 O
  atom_frac 0.701387 0.375000 0.492707 O
  atom_frac 0.749997 0.250000 0.492708 Ti
  atom_frac 0.624997 0.375000 0.492708 Ti
  atom_frac 0.548608 0.375000 0.492708 O
  atom_frac 0.624998 0.250000 0.507292 O
  atom_frac 0.749996 0.250000 0.515628 O
  atom_frac 0.576386 0.375000 0.530212 O
  atom_frac 0.624997 0.250000 0.530212 Ti
  atom_frac 0.749997 0.375000 0.530212 Ti
  atom_frac 0.673607 0.375000 0.530212 O
  atom_frac 0.749998 0.250000 0.544797 O
  atom_frac 0.624995 0.250000 0.553132 O
  atom_frac 0.701386 0.375000 0.567716 O
  atom_frac 0.749996 0.250000 0.567717 Ti
  atom_frac 0.624996 0.375000 0.567717 Ti
  atom_frac 0.548606 0.375000 0.567717 O
  atom_frac 0.624997 0.250000 0.582301 O
  atom_frac 0.749994 0.250000 0.590636 O
  atom_frac 0.576385 0.375000 0.605221 O
  atom_frac 0.624995 0.250000 0.605221 Ti
  atom_frac 0.749995 0.375000 0.605221 Ti
  atom_frac 0.673606 0.375000 0.605221 O
  atom_frac 0.749996 0.250000 0.619805 O
  atom_frac 0.624994 0.250000 0.628141 O
  atom_frac 0.701384 0.375000 0.642725 O
  atom_frac 0.749995 0.250000 0.642725 Ti
  atom_frac 0.624995 0.375000 0.642725 Ti
  atom_frac 0.548605 0.375000 0.642726 O
  atom_frac 0.624995 0.250000 0.657310 O
  atom_frac 0.749998 0.500000 0.365610 O
  atom_frac 0.576389 0.625000 0.380194 O
  atom_frac 0.624999 0.500000 0.380195 Ti
  atom_frac 0.749999 0.625000 0.380195 Ti
  atom_frac 0.673610 0.625000 0.380195 O
  atom_frac 0.500000 0.500000 0.394779 O
  atom_frac 0.624998 0.500000 0.403114 O
  atom_frac 0.701388 0.625000 0.417699 O
  atom_frac 0.749999 0.500000 0.417699 Ti
  atom_frac 0.624999 0.625000 0.417699 Ti
  atom_frac 0.548609 0.625000 0.417699 O
  atom_frac 0.625000 0.500000 0.432283 O
  atom_frac 0.749997 0.500000 0.440619 O
  atom_frac 0.576388 0.625000 0.455203 O
  atom_frac 0.624998 0.500000 0.455203 Ti
  atom_frac 0.749998 0.625000 0.455203 Ti
  atom_frac 0.673608 0.625000 0.455204 O
  atom_frac 0.749999 0.500000 0.469788 O
  atom_frac 0.624996 0.500000 0.478123 O
  atom_frac 0.701387 0.625000 0.492707 O
  atom_frac 0.749997 0.500000 0.492708 Ti
  atom_frac 0.624997 0.625000 0.492708 Ti
  atom_frac 0.548608 0.625000 0.492708 O
  atom_frac 0.624998 0.500000 0.507292 O
  atom_frac 0.749996 0.500000 0.515628 O
  atom_frac 0.576386 0.625000 0.530212 O
  atom_frac 0.624997 0.500000 0.530212 Ti
  atom_frac 0.749997 0.625000 0.530212 Ti
  atom_frac 0.673607 0.625000 0.530212 O
  atom_frac 0.749998 0.500000 0.544797 O
  atom_frac 0.624995 0.500000 0.553132 O
  atom_frac 0.701386 0.625000 0.567716 O
  atom_frac 0.749996 0.500000 0.567717 Ti
  atom_frac 0.624996 0.625000 0.567717 Ti
  atom_frac 0.548606 0.625000 0.567717 O
  atom_frac 0.624997 0.500000 0.582301 O
  atom_frac 0.749994 0.500000 0.590636 O
  atom_frac 0.576385 0.625000 0.605221 O
  atom_frac 0.624995 0.500000 0.605221 Ti
  atom_frac 0.749995 0.625000 0.605221 Ti
  atom_frac 0.673606 0.625000 0.605221 O
  atom_frac 0.749996 0.500000 0.619805 O
  atom_frac 0.624994 0.500000 0.628141 O
  atom_frac 0.701384 0.625000 0.642725 O
  atom_frac 0.749995 0.500000 0.642725 Ti
  atom_frac 0.624995 0.625000 0.642725 Ti
  atom_frac 0.548605 0.625000 0.642726 O
  atom_frac 0.624995 0.500000 0.657310 O
  atom_frac 0.749998 0.750000 0.365610 O
  atom_frac 0.576389 0.875000 0.380194 O
  atom_frac 0.624999 0.750000 0.380195 Ti
  atom_frac 0.749999 0.875000 0.380195 Ti
  atom_frac 0.673610 0.875000 0.380195 O
  atom_frac 0.500000 0.750000 0.394779 O
  atom_frac 0.624998 0.750000 0.403114 O
  atom_frac 0.701388 0.875000 0.417699 O
  atom_frac 0.749999 0.750000 0.417699 Ti
  atom_frac 0.624999 0.875000 0.417699 Ti
  atom_frac 0.548609 0.875000 0.417699 O
  atom_frac 0.625000 0.750000 0.432283 O
  atom_frac 0.749997 0.750000 0.440619 O
  atom_frac 0.576388 0.875000 0.455203 O
  atom_frac 0.624998 0.750000 0.455203 Ti
  atom_frac 0.749998 0.875000 0.455203 Ti
  atom_frac 0.673608 0.875000 0.455204 O
  atom_frac 0.749999 0.750000 0.469788 O
  atom_frac 0.624996 0.750000 0.478123 O
  atom_frac 0.701387 0.875000 0.492707 O
  atom_frac 0.749997 0.750000 0.492708 Ti
  atom_frac 0.624997 0.875000 0.492708 Ti
  atom_frac 0.548608 0.875000 0.492708 O
  atom_frac 0.624998 0.750000 0.507292 O
  atom_frac 0.749996 0.750000 0.515628 O
  atom_frac 0.576386 0.875000 0.530212 O
  atom_frac 0.624997 0.750000 0.530212 Ti
  atom_frac 0.749997 0.875000 0.530212 Ti
  atom_frac 0.673607 0.875000 0.530212 O
  atom_frac 0.749998 0.750000 0.544797 O
  atom_frac 0.624995 0.750000 0.553132 O
  atom_frac 0.701386 0.875000 0.567716 O
  atom_frac 0.749996 0.750000 0.567717 Ti
  atom_frac 0.624996 0.875000 0.567717 Ti
  atom_frac 0.548606 0.875000 0.567717 O
  atom_frac 0.624997 0.750000 0.582301 O
  atom_frac 0.749994 0.750000 0.590636 O
  atom_frac 0.576385 0.875000 0.605221 O
  atom_frac 0.624995 0.750000 0.605221 Ti
  atom_frac 0.749995 0.875000 0.605221 Ti
  atom_frac 0.673606 0.875000 0.605221 O
  atom_frac 0.749996 0.750000 0.619805 O
  atom_frac 0.624994 0.750000 0.628141 O
  atom_frac 0.701384 0.875000 0.642725 O
  atom_frac 0.749995 0.750000 0.642725 Ti
  atom_frac 0.624995 0.875000 0.642725 Ti
  atom_frac 0.548605 0.875000 0.642726 O
  atom_frac 0.624995 0.750000 0.657310 O
  atom_frac 0.999998 0.000000 0.365610 O
  atom_frac 0.826389 0.125000 0.380194 O
  atom_frac 0.874999 0.000000 0.380195 Ti
  atom_frac 0.999999 0.125000 0.380195 Ti
  atom_frac 0.923610 0.125000 0.380195 O
  atom_frac 0.750000 0.000000 0.394779 O
  atom_frac 0.874998 0.000000 0.403114 O
  atom_frac 0.951388 0.125000 0.417699 O
  atom_frac 0.999999 0.000000 0.417699 Ti
  atom_frac 0.874999 0.125000 0.417699 Ti
  atom_frac 0.798609 0.125000 0.417699 O
  atom_frac 0.875000 0.000000 0.432283 O
  atom_frac 0.999997 0.000000 0.440619 O
  atom_frac 0.826388 0.125000 0.455203 O
  atom_frac 0.874998 0.000000 0.455203 Ti
  atom_frac 0.999998 0.125000 0.455203 Ti
  atom_frac 0.923608 0.125000 0.455204 O
  atom_frac 0.999999 0.000000 0.469788 O
  atom_frac 0.874996 0.000000 0.478123 O
  atom_frac 0.951387 0.125000 0.492707 O
  atom_frac 0.999997 0.000000 0.492708 Ti
  atom_frac 0.874997 0.125000 0.492708 Ti
  atom_frac 0.798608 0.125000 0.492708 O
  atom_frac 0.874998 0.000000 0.507292 O
  atom_frac 0.999996 0.000000 0.515628 O
  atom_frac 0.826386 0.125000 0.530212 O
  atom_frac 0.874997 0.000000 0.530212 Ti
  atom_frac 0.999997 0.125000 0.530212 Ti
  atom_frac 0.923607 0.125000 0.530212 O
  atom_frac 0.999998 0.000000 0.544797 O
  atom_frac 0.874995 0.000000 0.553132 O
  atom_frac 0.951386 0.125000 0.567716 O
  atom_frac 0.999996 0.000000 0.567717 Ti
  atom_frac 0.874996 0.125000 0.567717 Ti
  atom_frac 0.798606 0.125000 0.567717 O
  atom_frac 0.874997 0.000000 0.582301 O
  atom_frac 0.999994 0.000000 0.590636 O
  atom_frac 0.826385 0.125000 0.605221 O
  atom_frac 0.874995 0.000000 0.605221 Ti
  atom_frac 0.999995 0.125000 0.605221 Ti
  atom_frac 0.923606 0.125000 0.605221 O
  atom_frac 0.999996 0.000000 0.619805 O
  atom_frac 0.874994 0.000000 0.628141 O
  atom_frac 0.951384 0.125000 0.642725 O
  atom_frac 0.999995 0.000000 0.642725 Ti
  atom_frac 0.874995 0.125000 0.642725 Ti
  atom_frac 0.798605 0.125000 0.642726 O
  atom_frac 0.874995 0.000000 0.657310 O
  atom_frac 0.999998 0.250000 0.365610 O
  atom_frac 0.826389 0.375000 0.380194 O
  atom_frac 0.874999 0.250000 0.380195 Ti
  atom_frac 0.999999 0.375000 0.380195 Ti
  atom_frac 0.923610 0.375000 0.380195 O
  atom_frac 0.750000 0.250000 0.394779 O
  atom_frac 0.874998 0.250000 0.403114 O
  atom_frac 0.951388 0.375000 0.417699 O
  atom_frac 0.999999 0.250000 0.417699 Ti
  atom_frac 0.874999 0.375000 0.417699 Ti
  atom_frac 0.798609 0.375000 0.417699 O
  atom_frac 0.875000 0.250000 0.432283 O
  atom_frac 0.999997 0.250000 0.440619 O
  atom_frac 0.826388 0.375000 0.455203 O
  atom_frac 0.874998 0.250000 0.455203 Ti
  atom_frac 0.999998 0.375000 0.455203 Ti
  atom_frac 0.923608 0.375000 0.455204 O
  atom_frac 0.999999 0.250000 0.469788 O
  atom_frac 0.874996 0.250000 0.478123 O
  atom_frac 0.951387 0.375000 0.492707 O
  atom_frac 0.999997 0.250000 0.492708 Ti
  atom_frac 0.874997 0.375000 0.492708 Ti
  atom_frac 0.798608 0.375000 0.492708 O
  atom_frac 0.874998 0.250000 0.507292 O
  atom_frac 0.999996 0.250000 0.515628 O
  atom_frac 0.826386 0.375000 0.530212 O
  atom_frac 0.874997 0.250000 0.530212 Ti
  atom_frac 0.999997 0.375000 0.530212 Ti
  atom_frac 0.923607 0.375000 0.530212 O
  atom_frac 0.999998 0.250000 0.544797 O
  atom_frac 0.874995 0.250000 0.553132 O
  atom_frac 0.951386 0.375000 0.567716 O
  atom_frac 0.999996 0.250000 0.567717 Ti
  atom_frac 0.874996 0.375000 0.567717 Ti
  atom_frac 0.798606 0.375000 0.567717 O
  atom_frac 0.874997 0.250000 0.582301 O
  atom_frac 0.999994 0.250000 0.590636 O
  atom_frac 0.826385 0.375000 0.605221 O
  atom_frac 0.874995 0.250000 0.605221 Ti
  atom_frac 0.999995 0.375000 0.605221 Ti
  atom_frac 0.923606 0.375000 0.605221 O
  atom_frac 0.999996 0.250000 0.619805 O
  atom_frac 0.874994 0.250000 0.628141 O
  atom_frac 0.951384 0.375000 0.642725 O
  atom_frac 0.999995 0.250000 0.642725 Ti
  atom_frac 0.874995 0.375000 0.642725 Ti
  atom_frac 0.798605 0.375000 0.642726 O
  atom_frac 0.874995 0.250000 0.657310 O
  atom_frac 0.999998 0.500000 0.365610 O
  atom_frac 0.826389 0.625000 0.380194 O
  atom_frac 0.874999 0.500000 0.380195 Ti
  atom_frac 0.999999 0.625000 0.380195 Ti
  atom_frac 0.923610 0.625000 0.380195 O
  atom_frac 0.750000 0.500000 0.394779 O
  atom_frac 0.874998 0.500000 0.403114 O
  atom_frac 0.951388 0.625000 0.417699 O
  atom_frac 0.999999 0.500000 0.417699 Ti
  atom_frac 0.874999 0.625000 0.417699 Ti
  atom_frac 0.798609 0.625000 0.417699 O
  atom_frac 0.875000 0.500000 0.432283 O
  atom_frac 0.999997 0.500000 0.440619 O
  atom_frac 0.826388 0.625000 0.455203 O
  atom_frac 0.874998 0.500000 0.455203 Ti
  atom_frac 0.999998 0.625000 0.455203 Ti
  atom_frac 0.923608 0.625000 0.455204 O
  atom_frac 0.999999 0.500000 0.469788 O
  atom_frac 0.874996 0.500000 0.478123 O
  atom_frac 0.951387 0.625000 0.492707 O
  atom_frac 0.999997 0.500000 0.492708 Ti
  atom_frac 0.874997 0.625000 0.492708 Ti
  atom_frac 0.798608 0.625000 0.492708 O
  atom_frac 0.874998 0.500000 0.507292 O
  atom_frac 0.999996 0.500000 0.515628 O
  atom_frac 0.826386 0.625000 0.530212 O
  atom_frac 0.874997 0.500000 0.530212 Ti
  atom_frac 0.999997 0.625000 0.530212 Ti
  atom_frac 0.923607 0.625000 0.530212 O
  atom_frac 0.999998 0.500000 0.544797 O
  atom_frac 0.874995 0.500000 0.553132 O
  atom_frac 0.951386 0.625000 0.567716 O
  atom_frac 0.999996 0.500000 0.567717 Ti
  atom_frac 0.874996 0.625000 0.567717 Ti
  atom_frac 0.798606 0.625000 0.567717 O
  atom_frac 0.874997 0.500000 0.582301 O
  atom_frac 0.999994 0.500000 0.590636 O
  atom_frac 0.826385 0.625000 0.605221 O
  atom_frac 0.874995 0.500000 0.605221 Ti
  atom_frac 0.999995 0.625000 0.605221 Ti
  atom_frac 0.923606 0.625000 0.605221 O
  atom_frac 0.999996 0.500000 0.619805 O
  atom_frac 0.874994 0.500000 0.628141 O
  atom_frac 0.951384 0.625000 0.642725 O
  atom_frac 0.999995 0.500000 0.642725 Ti
  atom_frac 0.874995 0.625000 0.642725 Ti
  atom_frac 0.798605 0.625000 0.642726 O
  atom_frac 0.874995 0.500000 0.657310 O
  atom_frac 0.999998 0.750000 0.365610 O
  atom_frac 0.826389 0.875000 0.380194 O
  atom_frac 0.874999 0.750000 0.380195 Ti
  atom_frac 0.999999 0.875000 0.380195 Ti
  atom_frac 0.923610 0.875000 0.380195 O
  atom_frac 0.750000 0.750000 0.394779 O
  atom_frac 0.874998 0.750000 0.403114 O
  atom_frac 0.951388 0.875000 0.417699 O
  atom_frac 0.999999 0.750000 0.417699 Ti
  atom_frac 0.874999 0.875000 0.417699 Ti
  atom_frac 0.798609 0.875000 0.417699 O
  atom_frac 0.875000 0.750000 0.432283 O
  atom_frac 0.999997 0.750000 0.440619 O
  atom_frac 0.826388 0.875000 0.455203 O
  atom_frac 0.874998 0.750000 0.455203 Ti
  atom_frac 0.999998 0.875000 0.455203 Ti
  atom_frac 0.923608 0.875000 0.455204 O
  atom_frac 0.999999 0.750000 0.469788 O
  atom_frac 0.874996 0.750000 0.478123 O
  atom_frac 0.951387 0.875000 0.492707 O
  atom_frac 0.999997 0.750000 0.492708 Ti
  atom_frac 0.874997 0.875000 0.492708 Ti
  atom_frac 0.798608 0.875000 0.492708 O
  atom_frac 0.874998 0.750000 0.507292 O
  atom_frac 0.999996 0.750000 0.515628 O
  atom_frac 0.826386 0.875000 0.530212 O
  atom_frac 0.874997 0.750000 0.530212 Ti
  atom_frac 0.999997 0.875000 0.530212 Ti
  atom_frac 0.923607 0.875000 0.530212 O
  atom_frac 0.999998 0.750000 0.544797 O
  atom_frac 0.874995 0.750000 0.553132 O
  atom_frac 0.951386 0.875000 0.567716 O
  atom_frac 0.999996 0.750000 0.567717 Ti
  atom_frac 0.874996 0.875000 0.567717 Ti
  atom_frac 0.798606 0.875000 0.567717 O
  atom_frac 0.874997 0.750000 0.582301 O
  atom_frac 0.999994 0.750000 0.590636 O
  atom_frac 0.826385 0.875000 0.605221 O
  atom_frac 0.874995 0.750000 0.605221 Ti
  atom_frac 0.999995 0.875000 0.605221 Ti
  atom_frac 0.923606 0.875000 0.605221 O
  atom_frac 0.999996 0.750000 0.619805 O
  atom_frac 0.874994 0.750000 0.628141 O
  atom_frac 0.951384 0.875000 0.642725 O
  atom_frac 0.999995 0.750000 0.642725 Ti
  atom_frac 0.874995 0.875000 0.642725 Ti
  atom_frac 0.798605 0.875000 0.642726 O
  atom_frac 0.874995 0.750000 0.657310 O
  
  -----------------------------------------------------------------------
  Completed first pass over input file geometry.in .
  -----------------------------------------------------------------------
  

  Basic array size parameters:
  | Number of species                 :        3
  | Number of atoms                   :      768
  | Number of lattice vectors         :        3
  | Max. basis fn. angular momentum   :        4
  | Max. atomic/ionic basis occupied n:        4
  | Max. number of basis fn. types    :        3
  | Max. radial fns per species/type  :       18
  | Max. logarithmic grid size        :     1383
  | Max. radial integration grid size :       73
  | Max. angular integration grid size:      434
  | Max. angular grid division number :        8
  | Radial grid for Hartree potential :     1383
  | Number of spin channels           :        1

------------------------------------------------------------
          Reading file control.in.
------------------------------------------------------------
  XC: Using PBE gradient-corrected functionals.
  Scalar relativistic treatment of kinetic energy: ZORA.
  Threshold value for ZORA:   0.100000E-11
  Found k-point grid:         2         4         1
  Mulliken charge analysis will be performed and summarised to the main output.
  Full Mulliken charge analysis will be written to file 'Mulliken.out'.
 
  Reading configuration options for species Ti                  .
  | Found nuclear charge :  22.0000
  | Found atomic mass :    47.8670000000000      amu
  | Found l_max for Hartree potential  :   4
  | Found cutoff potl. onset [A], width [A], scale factor :    3.50000    1.50000    1.00000
  | Threshold for basis-dependent cutoff potential is   0.100000E-03
  | Found data for basic radial integration grid :    48 points, outermost radius =    5.000 A
  | Found multiplier for basic radial grid :   1
  | Found angular grid specification: user-specified.
  | Specified grid contains     5 separate shells.
  | Check grid settings after all constraints further below.
  | Found free-atom valence shell :  4 s   2.000
  | Found free-atom valence shell :  3 p   6.000
  | Found free-atom valence shell :  3 d   2.000
  | Found free-ion valence shell :  4 s   1.000
  | Found free-ion valence shell :  3 p   6.000
  | Found free-ion valence shell :  3 d   1.000
  | Found hydrogenic basis function :  4 f   8.000
  | Found hydrogenic basis function :  3 d   2.700
  | Found ionic basis function :  4 p , default cutoff radius.
  | Found ionic basis function :  4 s , default cutoff radius.
 | Encountered keyword species, ending the description of species Ti                  .
  Species Ti                  : Missing cutoff potential type.
  Defaulting to exp(1/x)/(1-x)^2 type cutoff potential.
  Species Ti: No 'logarithmic' tag. Using default grid for free atom:
  | Default logarithmic grid data [bohr] : 0.1000E-03 0.1000E+03 0.1012E+01
  | Will include ionic basis functions of  2.0-fold positive Ti                   ion.
  Species Ti: On-site basis accuracy parameter (for Gram-Schmidt orthonormalisation) not specified.
  Using default value basis_acc =  0.1000000E-03.
  Species Ti                  : Using default innermost maximum threshold i_radial=  2 for radial functions.
  Species Ti                  : Default cutoff onset for free atom density etc. : 0.35000000E+01 AA.
  Species Ti                  : Basic radial grid will be enhanced according to radial_multiplier =   1, to contain    48 grid points.
 
  Reading configuration options for species O                   .
  | Found nuclear charge :   8.0000
  | Found atomic mass :    15.9994000000000      amu
  | Found l_max for Hartree potential  :   4
  | Found cutoff potl. onset [A], width [A], scale factor :    3.50000    1.50000    1.00000
  | Threshold for basis-dependent cutoff potential is   0.100000E-03
  | Found data for basic radial integration grid :    36 points, outermost radius =    5.000 A
  | Found multiplier for basic radial grid :   1
  | Found angular grid specification: user-specified.
  | Specified grid contains     5 separate shells.
  | Check grid settings after all constraints further below.
  | Found free-atom valence shell :  2 s   2.000
  | Found free-atom valence shell :  2 p   4.000
  | Found free-ion valence shell :  2 s   1.000
  | Found free-ion valence shell :  2 p   3.000
  | Found hydrogenic basis function :  2 p   1.800
  | Found hydrogenic basis function :  3 d   7.600
  | Found hydrogenic basis function :  3 s   6.400
 | Encountered keyword species, ending the description of species O                   .
  Species O                   : Missing cutoff potential type.
  Defaulting to exp(1/x)/(1-x)^2 type cutoff potential.
  Species O : No 'logarithmic' tag. Using default grid for free atom:
  | Default logarithmic grid data [bohr] : 0.1000E-03 0.1000E+03 0.1012E+01
  Species O : On-site basis accuracy parameter (for Gram-Schmidt orthonormalisation) not specified.
  Using default value basis_acc =  0.1000000E-03.
  Species O                   : Using default innermost maximum threshold i_radial=  2 for radial functions.
  Species O                   : Default cutoff onset for free atom density etc. : 0.35000000E+01 AA.
  Species O                   : Basic radial grid will be enhanced according to radial_multiplier =   1, to contain    36 grid points.
 
  Reading configuration options for species O1                  .
  | Found nuclear charge :   8.0000
  | Found atomic mass :    15.9994000000000      amu
  | Found l_max for Hartree potential  :   6
  | Found cutoff potl. onset [A], width [A], scale factor :    4.00000    2.00000    1.00000
  | Threshold for basis-dependent cutoff potential is   0.100000E-03
  | Found data for basic radial integration grid :    36 points, outermost radius =    7.000 A
  | Found multiplier for basic radial grid :   2
  | Found angular grid specification: user-specified.
  | Specified grid contains     6 separate shells.
  | Check grid settings after all constraints further below.
  | Found free-atom valence shell :  2 s   2.000
  | Found free-atom valence shell :  2 p   4.000
  | Found free-ion valence shell :  2 s   1.000
  | Found free-ion valence shell :  2 p   3.000
  | Found hydrogenic basis function :  2 p   1.800
  | Found hydrogenic basis function :  3 d   7.600
  | Found hydrogenic basis function :  3 s   6.400
  | Found hydrogenic basis function :  4 f  11.600
  | Found hydrogenic basis function :  3 p   6.200
  | Found hydrogenic basis function :  3 d   5.600
  | Found hydrogenic basis function :  5 g  17.600
  | Found hydrogenic basis function :  1 s   0.750
  | Found ionic basis function :  2 p , default cutoff radius.
  | Found hydrogenic basis function :  4 f  10.800
  | Found hydrogenic basis function :  4 d   4.700
  | Found hydrogenic basis function :  2 s   6.800
  | Found hydrogenic basis function :  1 s  12.000
  | Found hydrogenic basis function :  1 s  10.000
  | Found hydrogenic basis function :  1 s   6.000
  | Found hydrogenic basis function :  2 s  10.000
  | Found hydrogenic basis function :  2 p   8.000
  | Found hydrogenic basis function :  2 p   6.000
  | Found hydrogenic basis function :  3 d   8.000
  Species O1                  : Missing cutoff potential type.
  Defaulting to exp(1/x)/(1-x)^2 type cutoff potential.
  Species O1: No 'logarithmic' tag. Using default grid for free atom:
  | Default logarithmic grid data [bohr] : 0.1000E-03 0.1000E+03 0.1012E+01
  | Will include ionic basis functions of  2.0-fold positive O1                   ion.
  Species O1: On-site basis accuracy parameter (for Gram-Schmidt orthonormalisation) not specified.
  Using default value basis_acc =  0.1000000E-03.
  Species O1                  : Using default innermost maximum threshold i_radial=  2 for radial functions.
  Species O1                  : Default cutoff onset for free atom density etc. : 0.40000000E+01 AA.
  Species O1                  : Basic radial grid will be enhanced according to radial_multiplier =   2, to contain    73 grid points.
 
  Finished reading input file 'control.in'.
 
------------------------------------------------------------


------------------------------------------------------------
          Reading geometry description geometry.in.
------------------------------------------------------------
  | The smallest distance between any two atoms is         1.95946827 AA.
  | The first atom of this pair is atom number                    710 .
  | The second atom of this pair is atom number                   759 .
  | Wigner-Seitz cell of the first atom image           0     0     0 .
  | (The Wigner-Seitz cell of the second atom is 0 0 0  by definition.)

  Symmetry information by spglib:
  | Precision set to  0.1E-04
  | Number of Operations  : 32
  | Space group           : 6
  | International         : Pm
  | Schoenflies           : Cs^1
  Input structure read successfully.
  The structure contains      768 atoms,  and a total of       9728.000 electrons.

  Input geometry:
  | Unit cell:
  |       26.26450600        0.00000000        0.00000000
  |        0.00000000       11.89153100        0.00000000
  |        0.00000000        0.00000000       87.54264900
  | Atomic structure:
  |       Atom                x [A]            y [A]            z [A]
  |    1: Species O             6.56607397        0.00000000       32.00646790
  |    2: Species O             2.00631935        1.48644138       33.28318989
  |    3: Species Ti            3.28303699        0.00000000       33.28327744
  |    4: Species Ti            6.56610024        1.48644138       33.28327744
  |    5: Species O             4.55978089        1.48644138       33.28327744
  |    6: Species O             0.00000000        0.00000000       34.55999943
  |    7: Species O             3.28301072        0.00000000       35.28966741
  |    8: Species O             5.28935633        1.48644138       36.56647694
  |    9: Species Ti            6.56610024        0.00000000       36.56647694
  |   10: Species Ti            3.28303699        1.48644138       36.56647694
  |   11: Species O             1.27669137        1.48644138       36.56647694
  |   12: Species O             3.28306325        0.00000000       37.84319894
  |   13: Species O             6.56604771        0.00000000       38.57295446
  |   14: Species O             2.00629308        1.48644138       39.84967645
  |   15: Species Ti            3.28301072        0.00000000       39.84967645
  |   16: Species Ti            6.56607397        1.48644138       39.84967645
  |   17: Species O             4.55972836        1.48644138       39.84976400
  |   18: Species O             6.56610024        0.00000000       41.12648599
  |   19: Species O             3.28295819        0.00000000       41.85615397
  |   20: Species O             5.28933007        1.48644138       43.13287596
  |   21: Species Ti            6.56604771        0.00000000       43.13296350
  |   22: Species Ti            3.28298446        1.48644138       43.13296350
  |   23: Species O             1.27666511        1.48644138       43.13296350
  |   24: Species O             3.28301072        0.00000000       44.40968550
  |   25: Species O             6.56602144        0.00000000       45.13944102
  |   26: Species O             2.00624056        1.48644138       46.41616301
  |   27: Species Ti            3.28298446        0.00000000       46.41616301
  |   28: Species Ti            6.56604771        1.48644138       46.41616301
  |   29: Species O             4.55970209        1.48644138       46.41616301
  |   30: Species O             6.56607397        0.00000000       47.69297255
  |   31: Species O             3.28293193        0.00000000       48.42264053
  |   32: Species O             5.28930381        1.48644138       49.69936252
  |   33: Species Ti            6.56602144        0.00000000       49.69945006
  |   34: Species Ti            3.28295819        1.48644138       49.69945006
  |   35: Species O             1.27661258        1.48644138       49.69945006
  |   36: Species O             3.28298446        0.00000000       50.97617206
  |   37: Species O             6.56596891        0.00000000       51.70584003
  |   38: Species O             2.00621429        1.48644138       52.98264957
  |   39: Species Ti            3.28293193        0.00000000       52.98264957
  |   40: Species Ti            6.56599518        1.48644138       52.98264957
  |   41: Species O             4.55967583        1.48644138       52.98264957
  |   42: Species O             6.56602144        0.00000000       54.25937156
  |   43: Species O             3.28290566        0.00000000       54.98912709
  |   44: Species O             5.28925128        1.48644138       56.26584908
  |   45: Species Ti            6.56599518        0.00000000       56.26584908
  |   46: Species Ti            3.28293193        1.48644138       56.26584908
  |   47: Species O             1.27658631        1.48644138       56.26593662
  |   48: Species O             3.28293193        0.00000000       57.54265861
  |   49: Species O             6.56607397        2.97288275       32.00646790
  |   50: Species O             2.00631935        4.45932413       33.28318989
  |   51: Species Ti            3.28303699        2.97288275       33.28327744
  |   52: Species Ti            6.56610024        4.45932413       33.28327744
  |   53: Species O             4.55978089        4.45932413       33.28327744
  |   54: Species O             0.00000000        2.97288275       34.55999943
  |   55: Species O             3.28301072        2.97288275       35.28966741
  |   56: Species O             5.28935633        4.45932413       36.56647694
  |   57: Species Ti            6.56610024        2.97288275       36.56647694
  |   58: Species Ti            3.28303699        4.45932413       36.56647694
  |   59: Species O             1.27669137        4.45932413       36.56647694
  |   60: Species O             3.28306325        2.97288275       37.84319894
  |   61: Species O             6.56604771        2.97288275       38.57295446
  |   62: Species O             2.00629308        4.45932413       39.84967645
  |   63: Species Ti            3.28301072        2.97288275       39.84967645
  |   64: Species Ti            6.56607397        4.45932413       39.84967645
  |   65: Species O             4.55972836        4.45932413       39.84976400
  |   66: Species O             6.56610024        2.97288275       41.12648599
  |   67: Species O             3.28295819        2.97288275       41.85615397
  |   68: Species O             5.28933007        4.45932413       43.13287596
  |   69: Species Ti            6.56604771        2.97288275       43.13296350
  |   70: Species Ti            3.28298446        4.45932413       43.13296350
  |   71: Species O             1.27666511        4.45932413       43.13296350
  |   72: Species O             3.28301072        2.97288275       44.40968550
  |   73: Species O             6.56602144        2.97288275       45.13944102
  |   74: Species O             2.00624056        4.45932413       46.41616301
  |   75: Species Ti            3.28298446        2.97288275       46.41616301
  |   76: Species Ti            6.56604771        4.45932413       46.41616301
  |   77: Species O             4.55970209        4.45932413       46.41616301
  |   78: Species O             6.56607397        2.97288275       47.69297255
  |   79: Species O             3.28293193        2.97288275       48.42264053
  |   80: Species O             5.28930381        4.45932413       49.69936252
  |   81: Species Ti            6.56602144        2.97288275       49.69945006
  |   82: Species Ti            3.28295819        4.45932413       49.69945006
  |   83: Species O             1.27661258        4.45932413       49.69945006
  |   84: Species O             3.28298446        2.97288275       50.97617206
  |   85: Species O             6.56596891        2.97288275       51.70584003
  |   86: Species O             2.00621429        4.45932413       52.98264957
  |   87: Species Ti            3.28293193        2.97288275       52.98264957
  |   88: Species Ti            6.56599518        4.45932413       52.98264957
  |   89: Species O             4.55967583        4.45932413       52.98264957
  |   90: Species O             6.56602144        2.97288275       54.25937156
  |   91: Species O             3.28290566        2.97288275       54.98912709
  |   92: Species O             5.28925128        4.45932413       56.26584908
  |   93: Species Ti            6.56599518        2.97288275       56.26584908
  |   94: Species Ti            3.28293193        4.45932413       56.26584908
  |   95: Species O             1.27658631        4.45932413       56.26593662
  |   96: Species O             3.28293193        2.97288275       57.54265861
  |   97: Species O             6.56607397        5.94576550       32.00646790
  |   98: Species O             2.00631935        7.43220687       33.28318989
  |   99: Species Ti            3.28303699        5.94576550       33.28327744
  |  100: Species Ti            6.56610024        7.43220687       33.28327744
  |  101: Species O             4.55978089        7.43220687       33.28327744
  |  102: Species O             0.00000000        5.94576550       34.55999943
  |  103: Species O             3.28301072        5.94576550       35.28966741
  |  104: Species O             5.28935633        7.43220687       36.56647694
  |  105: Species Ti            6.56610024        5.94576550       36.56647694
  |  106: Species Ti            3.28303699        7.43220687       36.56647694
  |  107: Species O             1.27669137        7.43220687       36.56647694
  |  108: Species O             3.28306325        5.94576550       37.84319894
  |  109: Species O             6.56604771        5.94576550       38.57295446
  |  110: Species O             2.00629308        7.43220687       39.84967645
  |  111: Species Ti            3.28301072        5.94576550       39.84967645
  |  112: Species Ti            6.56607397        7.43220687       39.84967645
  |  113: Species O             4.55972836        7.43220687       39.84976400
  |  114: Species O             6.56610024        5.94576550       41.12648599
  |  115: Species O             3.28295819        5.94576550       41.85615397
  |  116: Species O             5.28933007        7.43220687       43.13287596
  |  117: Species Ti            6.56604771        5.94576550       43.13296350
  |  118: Species Ti            3.28298446        7.43220687       43.13296350
  |  119: Species O             1.27666511        7.43220687       43.13296350
  |  120: Species O             3.28301072        5.94576550       44.40968550
  |  121: Species O             6.56602144        5.94576550       45.13944102
  |  122: Species O             2.00624056        7.43220687       46.41616301
  |  123: Species Ti            3.28298446        5.94576550       46.41616301
  |  124: Species Ti            6.56604771        7.43220687       46.41616301
  |  125: Species O             4.55970209        7.43220687       46.41616301
  |  126: Species O             6.56607397        5.94576550       47.69297255
  |  127: Species O             3.28293193        5.94576550       48.42264053
  |  128: Species O             5.28930381        7.43220687       49.69936252
  |  129: Species Ti            6.56602144        5.94576550       49.69945006
  |  130: Species Ti            3.28295819        7.43220687       49.69945006
  |  131: Species O             1.27661258        7.43220687       49.69945006
  |  132: Species O             3.28298446        5.94576550       50.97617206
  |  133: Species O             6.56596891        5.94576550       51.70584003
  |  134: Species O             2.00621429        7.43220687       52.98264957
  |  135: Species Ti            3.28293193        5.94576550       52.98264957
  |  136: Species Ti            6.56599518        7.43220687       52.98264957
  |  137: Species O             4.55967583        7.43220687       52.98264957
  |  138: Species O             6.56602144        5.94576550       54.25937156
  |  139: Species O             3.28290566        5.94576550       54.98912709
  |  140: Species O             5.28925128        7.43220687       56.26584908
  |  141: Species Ti            6.56599518        5.94576550       56.26584908
  |  142: Species Ti            3.28293193        7.43220687       56.26584908
  |  143: Species O             1.27658631        7.43220687       56.26593662
  |  144: Species O             3.28293193        5.94576550       57.54265861
  |  145: Species O             6.56607397        8.91864825       32.00646790
  |  146: Species O             2.00631935       10.40508963       33.28318989
  |  147: Species Ti            3.28303699        8.91864825       33.28327744
  |  148: Species Ti            6.56610024       10.40508963       33.28327744
  |  149: Species O             4.55978089       10.40508963       33.28327744
  |  150: Species O             0.00000000        8.91864825       34.55999943
  |  151: Species O             3.28301072        8.91864825       35.28966741
  |  152: Species O             5.28935633       10.40508963       36.56647694
  |  153: Species Ti            6.56610024        8.91864825       36.56647694
  |  154: Species Ti            3.28303699       10.40508963       36.56647694
  |  155: Species O             1.27669137       10.40508963       36.56647694
  |  156: Species O             3.28306325        8.91864825       37.84319894
  |  157: Species O             6.56604771        8.91864825       38.57295446
  |  158: Species O             2.00629308       10.40508963       39.84967645
  |  159: Species Ti            3.28301072        8.91864825       39.84967645
  |  160: Species Ti            6.56607397       10.40508963       39.84967645
  |  161: Species O             4.55972836       10.40508963       39.84976400
  |  162: Species O             6.56610024        8.91864825       41.12648599
  |  163: Species O             3.28295819        8.91864825       41.85615397
  |  164: Species O             5.28933007       10.40508963       43.13287596
  |  165: Species Ti            6.56604771        8.91864825       43.13296350
  |  166: Species Ti            3.28298446       10.40508963       43.13296350
  |  167: Species O             1.27666511       10.40508963       43.13296350
  |  168: Species O             3.28301072        8.91864825       44.40968550
  |  169: Species O             6.56602144        8.91864825       45.13944102
  |  170: Species O             2.00624056       10.40508963       46.41616301
  |  171: Species Ti            3.28298446        8.91864825       46.41616301
  |  172: Species Ti            6.56604771       10.40508963       46.41616301
  |  173: Species O             4.55970209       10.40508963       46.41616301
  |  174: Species O             6.56607397        8.91864825       47.69297255
  |  175: Species O             3.28293193        8.91864825       48.42264053
  |  176: Species O             5.28930381       10.40508963       49.69936252
  |  177: Species Ti            6.56602144        8.91864825       49.69945006
  |  178: Species Ti            3.28295819       10.40508963       49.69945006
  |  179: Species O             1.27661258       10.40508963       49.69945006
  |  180: Species O             3.28298446        8.91864825       50.97617206
  |  181: Species O             6.56596891        8.91864825       51.70584003
  |  182: Species O             2.00621429       10.40508963       52.98264957
  |  183: Species Ti            3.28293193        8.91864825       52.98264957
  |  184: Species Ti            6.56599518       10.40508963       52.98264957
  |  185: Species O             4.55967583       10.40508963       52.98264957
  |  186: Species O             6.56602144        8.91864825       54.25937156
  |  187: Species O             3.28290566        8.91864825       54.98912709
  |  188: Species O             5.28925128       10.40508963       56.26584908
  |  189: Species Ti            6.56599518        8.91864825       56.26584908
  |  190: Species Ti            3.28293193       10.40508963       56.26584908
  |  191: Species O             1.27658631       10.40508963       56.26593662
  |  192: Species O             3.28293193        8.91864825       57.54265861
  |  193: Species O            13.13220047        0.00000000       32.00646790
  |  194: Species O             8.57244585        1.48644138       33.28318989
  |  195: Species Ti            9.84916349        0.00000000       33.28327744
  |  196: Species Ti           13.13222674        1.48644138       33.28327744
  |  197: Species O            11.12590739        1.48644138       33.28327744
  |  198: Species O             6.56612650        0.00000000       34.55999943
  |  199: Species O             9.84913722        0.00000000       35.28966741
  |  200: Species O            11.85548283        1.48644138       36.56647694
  |  201: Species Ti           13.13222674        0.00000000       36.56647694
  |  202: Species Ti            9.84916349        1.48644138       36.56647694
  |  203: Species O             7.84281787        1.48644138       36.56647694
  |  204: Species O             9.84918975        0.00000000       37.84319894
  |  205: Species O            13.13217421        0.00000000       38.57295446
  |  206: Species O             8.57241958        1.48644138       39.84967645
  |  207: Species Ti            9.84913722        0.00000000       39.84967645
  |  208: Species Ti           13.13220047        1.48644138       39.84967645
  |  209: Species O            11.12585486        1.48644138       39.84976400
  |  210: Species O            13.13222674        0.00000000       41.12648599
  |  211: Species O             9.84908469        0.00000000       41.85615397
  |  212: Species O            11.85545657        1.48644138       43.13287596
  |  213: Species Ti           13.13217421        0.00000000       43.13296350
  |  214: Species Ti            9.84911096        1.48644138       43.13296350
  |  215: Species O             7.84279161        1.48644138       43.13296350
  |  216: Species O             9.84913722        0.00000000       44.40968550
  |  217: Species O            13.13214794        0.00000000       45.13944102
  |  218: Species O             8.57236706        1.48644138       46.41616301
  |  219: Species Ti            9.84911096        0.00000000       46.41616301
  |  220: Species Ti           13.13217421        1.48644138       46.41616301
  |  221: Species O            11.12582859        1.48644138       46.41616301
  |  222: Species O            13.13220047        0.00000000       47.69297255
  |  223: Species O             9.84905843        0.00000000       48.42264053
  |  224: Species O            11.85543031        1.48644138       49.69936252
  |  225: Species Ti           13.13214794        0.00000000       49.69945006
  |  226: Species Ti            9.84908469        1.48644138       49.69945006
  |  227: Species O             7.84273908        1.48644138       49.69945006
  |  228: Species O             9.84911096        0.00000000       50.97617206
  |  229: Species O            13.13209541        0.00000000       51.70584003
  |  230: Species O             8.57234079        1.48644138       52.98264957
  |  231: Species Ti            9.84905843        0.00000000       52.98264957
  |  232: Species Ti           13.13212168        1.48644138       52.98264957
  |  233: Species O            11.12580233        1.48644138       52.98264957
  |  234: Species O            13.13214794        0.00000000       54.25937156
  |  235: Species O             9.84903216        0.00000000       54.98912709
  |  236: Species O            11.85537778        1.48644138       56.26584908
  |  237: Species Ti           13.13212168        0.00000000       56.26584908
  |  238: Species Ti            9.84905843        1.48644138       56.26584908
  |  239: Species O             7.84271281        1.48644138       56.26593662
  |  240: Species O             9.84905843        0.00000000       57.54265861
  |  241: Species O            13.13220047        2.97288275       32.00646790
  |  242: Species O             8.57244585        4.45932413       33.28318989
  |  243: Species Ti            9.84916349        2.97288275       33.28327744
  |  244: Species Ti           13.13222674        4.45932413       33.28327744
  |  245: Species O            11.12590739        4.45932413       33.28327744
  |  246: Species O             6.56612650        2.97288275       34.55999943
  |  247: Species O             9.84913722        2.97288275       35.28966741
  |  248: Species O            11.85548283        4.45932413       36.56647694
  |  249: Species Ti           13.13222674        2.97288275       36.56647694
  |  250: Species Ti            9.84916349        4.45932413       36.56647694
  |  251: Species O             7.84281787        4.45932413       36.56647694
  |  252: Species O             9.84918975        2.97288275       37.84319894
  |  253: Species O            13.13217421        2.97288275       38.57295446
  |  254: Species O             8.57241958        4.45932413       39.84967645
  |  255: Species Ti            9.84913722        2.97288275       39.84967645
  |  256: Species Ti           13.13220047        4.45932413       39.84967645
  |  257: Species O            11.12585486        4.45932413       39.84976400
  |  258: Species O            13.13222674        2.97288275       41.12648599
  |  259: Species O             9.84908469        2.97288275       41.85615397
  |  260: Species O            11.85545657        4.45932413       43.13287596
  |  261: Species Ti           13.13217421        2.97288275       43.13296350
  |  262: Species Ti            9.84911096        4.45932413       43.13296350
  |  263: Species O             7.84279161        4.45932413       43.13296350
  |  264: Species O             9.84913722        2.97288275       44.40968550
  |  265: Species O            13.13214794        2.97288275       45.13944102
  |  266: Species O             8.57236706        4.45932413       46.41616301
  |  267: Species Ti            9.84911096        2.97288275       46.41616301
  |  268: Species Ti           13.13217421        4.45932413       46.41616301
  |  269: Species O            11.12582859        4.45932413       46.41616301
  |  270: Species O            13.13220047        2.97288275       47.69297255
  |  271: Species O             9.84905843        2.97288275       48.42264053
  |  272: Species O            11.85543031        4.45932413       49.69936252
  |  273: Species Ti           13.13214794        2.97288275       49.69945006
  |  274: Species Ti            9.84908469        4.45932413       49.69945006
  |  275: Species O             7.84273908        4.45932413       49.69945006
  |  276: Species O             9.84911096        2.97288275       50.97617206
  |  277: Species O            13.13209541        2.97288275       51.70584003
  |  278: Species O             8.57234079        4.45932413       52.98264957
  |  279: Species Ti            9.84905843        2.97288275       52.98264957
  |  280: Species Ti           13.13212168        4.45932413       52.98264957
  |  281: Species O            11.12580233        4.45932413       52.98264957
  |  282: Species O            13.13214794        2.97288275       54.25937156
  |  283: Species O             9.84903216        2.97288275       54.98912709
  |  284: Species O            11.85537778        4.45932413       56.26584908
  |  285: Species Ti           13.13212168        2.97288275       56.26584908
  |  286: Species Ti            9.84905843        4.45932413       56.26584908
  |  287: Species O             7.84271281        4.45932413       56.26593662
  |  288: Species O             9.84905843        2.97288275       57.54265861
  |  289: Species O            13.13220047        5.94576550       32.00646790
  |  290: Species O             8.57244585        7.43220687       33.28318989
[...]
  |   634       20.736284        1.263716        5.961286       12.504190        2.125803        0.145005
  |   635        8.624369       -0.624369        3.847061        4.767516        0.009791
  |   636        8.616787       -0.616787        3.847810        4.759118        0.009859
  |   637        8.624320       -0.624320        3.847852        4.766519        0.009948
  |   638        8.622847       -0.622847        3.847861        4.765092        0.009894
  |   639       20.752343        1.247657        5.962878       12.508842        2.135574        0.145049
  |   640       20.752653        1.247347        5.963188       12.508418        2.136069        0.144978
  |   641        8.622847       -0.622847        3.847861        4.765091        0.009894
  |   642        8.624228       -0.624228        3.847684        4.766654        0.009890
  |   643        8.622949       -0.622949        3.847752        4.765332        0.009865
  |   644        8.623544       -0.623544        3.847780        4.765890        0.009873
  |   645       20.752865        1.247135        5.963592       12.509213        2.135046        0.145014
  |   646       20.752899        1.247101        5.963555       12.509262        2.135048        0.145034
  |   647        8.623541       -0.623541        3.847778        4.765890        0.009873
  |   648        8.623371       -0.623371        3.847831        4.765665        0.009876
  |   649        8.623373       -0.623373        3.847831        4.765666        0.009876
  |   650        8.623540       -0.623540        3.847778        4.765889        0.009873
  |   651       20.752866        1.247134        5.963593       12.509213        2.135046        0.145014
  |   652       20.752901        1.247099        5.963556       12.509262        2.135049        0.145034
  |   653        8.623544       -0.623544        3.847780        4.765891        0.009873
  |   654        8.622957       -0.622957        3.847752        4.765339        0.009865
  |   655        8.624232       -0.624232        3.847684        4.766657        0.009890
  |   656        8.622848       -0.622848        3.847860        4.765093        0.009894
  |   657       20.752353        1.247647        5.962872       12.508846        2.135582        0.145053
  |   658       20.752653        1.247347        5.963188       12.508419        2.136067        0.144978
  |   659        8.622848       -0.622848        3.847860        4.765093        0.009894
  |   660        8.624321       -0.624321        3.847852        4.766521        0.009948
  |   661        8.616779       -0.616779        3.847807        4.759114        0.009858
  |   662        8.624368       -0.624368        3.847061        4.767516        0.009791
  |   663       20.747601        1.252399        5.962785       12.506917        2.133314        0.144584
  |   664       20.736288        1.263712        5.961287       12.504192        2.125805        0.145005
  |   665        8.624364       -0.624364        3.847060        4.767513        0.009791
  |   666        8.585236       -0.585236        3.844181        4.731099        0.009956
  |   667        8.628510       -0.628510        3.842784        4.775413        0.010313
  |   668        8.631884       -0.631884        3.858438        4.762617        0.010830
  |   669       20.746110        1.253890        6.096596       12.433228        2.094403        0.121883
  |   670       20.926051        1.073949        6.050977       12.512436        2.218294        0.144344
  |   671        8.631884       -0.631884        3.858440        4.762614        0.010830
  |   672        8.502497       -0.502497        3.879516        4.612213        0.010768
  |   673        8.502493       -0.502493        3.879516        4.612209        0.010768
  |   674        8.631892       -0.631892        3.858439        4.762623        0.010830
  |   675       20.746127        1.253873        6.096595       12.433230        2.094415        0.121887
  |   676       20.926049        1.073951        6.050977       12.512436        2.218292        0.144344
  |   677        8.631886       -0.631886        3.858436        4.762620        0.010829
  |   678        8.628507       -0.628507        3.842785        4.775409        0.010313
  |   679        8.585226       -0.585226        3.844175        4.731095        0.009956
  |   680        8.624365       -0.624365        3.847060        4.767514        0.009791
  |   681       20.747603        1.252397        5.962785       12.506916        2.133318        0.144584
  |   682       20.736284        1.263716        5.961286       12.504190        2.125803        0.145005
  |   683        8.624369       -0.624369        3.847061        4.767516        0.009791
  |   684        8.616787       -0.616787        3.847810        4.759118        0.009859
  |   685        8.624320       -0.624320        3.847852        4.766519        0.009948
  |   686        8.622847       -0.622847        3.847861        4.765092        0.009894
  |   687       20.752343        1.247657        5.962878       12.508842        2.135574        0.145049
  |   688       20.752653        1.247347        5.963188       12.508418        2.136069        0.144978
  |   689        8.622847       -0.622847        3.847861        4.765091        0.009894
  |   690        8.624228       -0.624228        3.847684        4.766654        0.009890
  |   691        8.622949       -0.622949        3.847752        4.765332        0.009865
  |   692        8.623544       -0.623544        3.847780        4.765890        0.009873
  |   693       20.752865        1.247135        5.963592       12.509213        2.135046        0.145014
  |   694       20.752899        1.247101        5.963555       12.509262        2.135048        0.145034
  |   695        8.623541       -0.623541        3.847778        4.765890        0.009873
  |   696        8.623371       -0.623371        3.847831        4.765665        0.009876
  |   697        8.623373       -0.623373        3.847831        4.765666        0.009876
  |   698        8.623540       -0.623540        3.847778        4.765889        0.009873
  |   699       20.752866        1.247134        5.963593       12.509213        2.135046        0.145014
  |   700       20.752901        1.247099        5.963556       12.509262        2.135049        0.145034
  |   701        8.623544       -0.623544        3.847780        4.765891        0.009873
  |   702        8.622957       -0.622957        3.847752        4.765339        0.009865
  |   703        8.624232       -0.624232        3.847684        4.766657        0.009890
  |   704        8.622848       -0.622848        3.847860        4.765093        0.009894
  |   705       20.752353        1.247647        5.962872       12.508846        2.135582        0.145053
  |   706       20.752653        1.247347        5.963188       12.508419        2.136067        0.144978
  |   707        8.622848       -0.622848        3.847860        4.765093        0.009894
  |   708        8.624321       -0.624321        3.847852        4.766521        0.009948
  |   709        8.616779       -0.616779        3.847807        4.759114        0.009858
  |   710        8.624368       -0.624368        3.847061        4.767516        0.009791
  |   711       20.747601        1.252399        5.962785       12.506917        2.133314        0.144584
  |   712       20.736288        1.263712        5.961287       12.504192        2.125805        0.145005
  |   713        8.624364       -0.624364        3.847060        4.767513        0.009791
  |   714        8.585236       -0.585236        3.844181        4.731099        0.009956
  |   715        8.628510       -0.628510        3.842784        4.775413        0.010313
  |   716        8.631884       -0.631884        3.858438        4.762617        0.010830
  |   717       20.746110        1.253890        6.096596       12.433228        2.094403        0.121883
  |   718       20.926051        1.073949        6.050977       12.512436        2.218294        0.144344
  |   719        8.631884       -0.631884        3.858440        4.762614        0.010830
  |   720        8.502497       -0.502497        3.879516        4.612213        0.010768
  |   721        8.502493       -0.502493        3.879516        4.612209        0.010768
  |   722        8.631892       -0.631892        3.858439        4.762623        0.010830
  |   723       20.746127        1.253873        6.096595       12.433230        2.094415        0.121887
  |   724       20.926049        1.073951        6.050977       12.512436        2.218292        0.144344
  |   725        8.631886       -0.631886        3.858436        4.762620        0.010829
  |   726        8.628507       -0.628507        3.842785        4.775409        0.010313
  |   727        8.585226       -0.585226        3.844175        4.731095        0.009956
  |   728        8.624365       -0.624365        3.847060        4.767514        0.009791
  |   729       20.747603        1.252397        5.962785       12.506916        2.133318        0.144584
  |   730       20.736284        1.263716        5.961286       12.504190        2.125803        0.145005
  |   731        8.624369       -0.624369        3.847061        4.767516        0.009791
  |   732        8.616787       -0.616787        3.847810        4.759118        0.009859
  |   733        8.624320       -0.624320        3.847852        4.766519        0.009948
  |   734        8.622847       -0.622847        3.847861        4.765092        0.009894
  |   735       20.752343        1.247657        5.962878       12.508842        2.135574        0.145049
  |   736       20.752653        1.247347        5.963188       12.508418        2.136069        0.144978
  |   737        8.622847       -0.622847        3.847861        4.765091        0.009894
  |   738        8.624228       -0.624228        3.847684        4.766654        0.009890
  |   739        8.622949       -0.622949        3.847752        4.765332        0.009865
  |   740        8.623544       -0.623544        3.847780        4.765890        0.009873
  |   741       20.752865        1.247135        5.963592       12.509213        2.135046        0.145014
  |   742       20.752899        1.247101        5.963555       12.509262        2.135048        0.145034
  |   743        8.623541       -0.623541        3.847778        4.765890        0.009873
  |   744        8.623371       -0.623371        3.847831        4.765665        0.009876
  |   745        8.623373       -0.623373        3.847831        4.765666        0.009876
  |   746        8.623540       -0.623540        3.847778        4.765889        0.009873
  |   747       20.752866        1.247134        5.963593       12.509213        2.135046        0.145014
  |   748       20.752901        1.247099        5.963556       12.509262        2.135049        0.145034
  |   749        8.623544       -0.623544        3.847780        4.765891        0.009873
  |   750        8.622957       -0.622957        3.847752        4.765339        0.009865
  |   751        8.624232       -0.624232        3.847684        4.766657        0.009890
  |   752        8.622848       -0.622848        3.847860        4.765093        0.009894
  |   753       20.752353        1.247647        5.962872       12.508846        2.135582        0.145053
  |   754       20.752653        1.247347        5.963188       12.508419        2.136067        0.144978
  |   755        8.622848       -0.622848        3.847860        4.765093        0.009894
  |   756        8.624321       -0.624321        3.847852        4.766521        0.009948
  |   757        8.616779       -0.616779        3.847807        4.759114        0.009858
  |   758        8.624368       -0.624368        3.847061        4.767516        0.009791
  |   759       20.747601        1.252399        5.962785       12.506917        2.133314        0.144584
  |   760       20.736288        1.263712        5.961287       12.504192        2.125805        0.145005
  |   761        8.624364       -0.624364        3.847060        4.767513        0.009791
  |   762        8.585236       -0.585236        3.844181        4.731099        0.009956
  |   763        8.628510       -0.628510        3.842784        4.775413        0.010313
  |   764        8.631884       -0.631884        3.858438        4.762617        0.010830
  |   765       20.746110        1.253890        6.096596       12.433228        2.094403        0.121883
  |   766       20.926051        1.073949        6.050977       12.512436        2.218294        0.144344
  |   767        8.631884       -0.631884        3.858440        4.762614        0.010830
  |   768        8.502497       -0.502497        3.879516        4.612213        0.010768
  |
  | Total     9728.000000       -0.000000
 
  Writing Mulliken decomposition to disk ...

  Mulliken analysis                                       :  max(cpu_time)    wall_clock(cpu1)
  | Time for Mulliken analysis                            :        280.818             280.983
  | Total time for Mulliken analysis                      :        280.818             280.983
------------------------------------------------------------

------------------------------------------------------------------------------
  Final output of selected total energy values:

  The following output summarizes some interesting total energy values
  at the end of a run (AFTER all relaxation, molecular dynamics, etc.).

  | Total energy of the DFT / Hartree-Fock s.c.f. calculation      :       -6997309.789560582 eV
  | Final zero-broadening corrected energy (caution - metals only) :       -6997309.789560582 eV
  | For reference only, the value of 1 Hartree used in FHI-aims is :             27.211384500 eV
  | For reference only, the overall average (free atom contribution
  | + realspace contribution) of the electrostatic potential after
  | s.c.f. convergence is                                          :             -5.105140134 eV

  Before relying on these values, please be sure to understand exactly which
  total energy value is referred to by a given number. Different objects may
  all carry the same name 'total energy'. Definitions:

  Total energy of the DFT / Hartree-Fock s.c.f. calculation:
  | Note that this energy does not include ANY quantities calculated after the
  | s.c.f. cycle, in particular not ANY RPA, MP2, etc. many-body perturbation terms.
  | Scalar relativistic effects have been included in the 'scaled ZORA' approximation.

  Final zero-broadening corrected energy:
  | For metallic systems only, a broadening of the occupation numbers at the Fermi
  | level can be extrapolated back to zero broadening by an electron-gas inspired
  | formula. For all systems that are not real metals, this value can be
  | meaningless and should be avoided.

------------------------------------------------------------------------------
  Methods described in the following list of references were used in this FHI-aims run.
  If you publish the results, please make sure to cite these reference if they apply.
  FHI-aims is an academic code, and for our developers (often, Ph.D. students
  and postdocs), scientific credit in the community is essential.
  Thank you for helping us!

  For any use of FHI-aims, please cite:

    Volker Blum, Ralf Gehrke, Felix Hanke, Paula Havu, Ville Havu,
    Xinguo Ren, Karsten Reuter, and Matthias Scheffler
    'Ab initio molecular simulations with numeric atom-centered orbitals'
    Computer Physics Communications 180, 2175-2196 (2009)
    http://doi.org/10.1016/j.cpc.2009.06.022


  The provided symmetry information was generated with SPGlib:

    Atsushi Togo, Yusuke Seto, Dimitar Pashov
    SPGlib 1.7.3 obtained from http://spglib.sourceforge.net
    Licence: New BSD license
    Copyright (C) 2008 Atsushi Togo


  The ELSI infrastructure was used in your run to solve the Kohn-Sham electronic structure.
  Please check out https://wordpress.elsi-interchange.org to learn more.
  If scalability is important for your project, please acknowledge ELSI by citing:

    V. W-z. Yu, F. Corsetti, A. Garcia, W. P. Huhn, M. Jacquelin, W. Jia,
    B. Lange, L. Lin, J. Lu, W. Mi, A. Seifitokaldani, A. Vazquez-Mayagoitia,
    C. Yang, H. Yang, and V. Blum
    'ELSI: A unified software interface for Kohn-Sham electronic structure solvers'
    Computer Physics Communications 222, 267-285 (2018).
    http://doi.org/10.1016/j.cpc.2017.09.007


  For the real-space grid partitioning and parallelization used in this calculation, please cite:

    Ville Havu, Volker Blum, Paula Havu, and Matthias Scheffler,
    'Efficient O(N) integration for all-electron electronic structure calculation'
    'using numerically tabulated basis functions'
    Journal of Computational Physics 228, 8367-8379 (2009).
    http://doi.org/10.1016/j.jcp.2009.08.008

  Of course, there are many other important community references, e.g., those cited in the
  above references. Our list is limited to references that describe implementations in the
  FHI-aims code. The reason is purely practical (length of this list) - please credit others as well.

------------------------------------------------------------
          Leaving FHI-aims.
          Date     :  20250121, Time     :  170339.451

          Computational steps:
          | Number of self-consistency cycles          :           24
          | Number of SCF (re)initializations          :            1

          Detailed time accounting                     :  max(cpu_time)    wall_clock(cpu1)
          | Total time                                  :    28249.177 s       28251.062 s
          | Preparation time                            :        0.965 s           0.960 s
          | Boundary condition initalization            :        1.243 s           1.244 s
          | Grid partitioning                           :       67.347 s          67.349 s
          | Preloading free-atom quantities on grid     :       71.436 s          71.439 s
          | Free-atom superposition energy              :        4.762 s           4.762 s
          | Total time for integrations                 :     1222.630 s        1222.650 s
          | Total time for solution of K.-S. equations  :    22665.238 s       22666.891 s
          | Total time for density update               :     2068.213 s        2068.326 s
          | Total time for mixing & preconditioning     :     1541.264 s        1541.307 s
          | Total time for Hartree multipole update     :        2.401 s           2.401 s
          | Total time for Hartree multipole sum        :      160.799 s         160.807 s
          | Total time for total energy evaluation      :        0.049 s           0.108 s
          | Total time for scaled ZORA corrections      :      146.326 s         146.333 s
          | Total time for Mulliken analysis            :      280.989 s         280.983 s

          Partial memory accounting:
          | Residual value for overall tracked memory usage across tasks:     0.000000 MB (should be 0.000000 MB)
          | Peak values for overall tracked memory usage:
          |   Minimum:     1534.869 MB (on task  9 after allocating mulliken_decomp)
          |   Maximum:     1680.291 MB (on task 23 after allocating mulliken_decomp)
          |   Average:     1589.987 MB
          | Largest tracked array allocation:
          |   Minimum:      313.438 MB (ovlp_complex on task  9)
          |   Maximum:      348.469 MB (ovlp_complex on task 22)
          |   Average:      326.344 MB
          Note:  These values currently only include a subset of arrays which are explicitly tracked.
          The "true" memory usage will be greater.

          Have a nice day.
------------------------------------------------------------
